
 Working directory              : /tmp/molpro/molpro.O5Rp8WL2wj/
 Global scratch directory       : /tmp/molpro/molpro.O5Rp8WL2wj/
 Wavefunction directory         : /home/molpro/wfu/
 Main file repository           : /tmp/molpro/molpro.O5Rp8WL2wj/

 id        : gskim

 Nodes                nprocs
 localhost.localdomain    1
 GA implementation: MPI file
 GA implementation (serial work in mppx): MPI file

 Using customized tuning parameters: mindgm=1; mindgv=20; mindgc=4; mindgr=1; noblas=0; minvec=7
 default implementation of scratch files=df  


 Variables initialized (1009), CPU time= 0.00 sec
 ***,TDM Calculations  for SiS  from 3sig+ to 3sig-
 file,2,sis-sp-3sigm-3sigp-lz.wfu
 memory,1000,M
 gexpec,Lx,Ly,Lz
 geometry={angstrom;
 Si
 S,Si,r(i)}
 basis=av5z
 r=[1.5]
 do i=1,#r
 int;
 
 Text,TDM calculation of SiS 3sigp to 3sig-  using  av5z
 
 {multi;occ,10,4,4;close,6,2,2;start,2140.2;orbital,2140.2;natorb,,ci;wf,30,1,2;state,4;wf,30,4,2;state,3;maxiter,40;}
 
 {ci;occ,10,4,4;core,6,2,2;wf,30,1,2;state,3;orbital,2140.2;maxiter,250;option,maxiti=250;option,nstati=4;save,8340.2;}
 
 {ci;occ,10,4,4;core,6,2,2;wf,30,4,2;state,2;orbital,2140.2;maxiter,250;option,maxiti=250;option,nstati=3;save,7340.2;}
 
 {ci;trans,7340.2,8340.2;}
 
 enddo
 
 Commands initialized (810), CPU time= 0.01 sec, 661 directives.
 Default parameters read. Elapsed time= 0.05 sec

 Checking input...
 Passed
1


                                         ***  PROGRAM SYSTEM MOLPRO  ***
                                       Copyright, TTI GmbH Stuttgart, 2015
                                    Version 2021.2 linked Jul 16 2021 07:37:36


 **********************************************************************************************************************************
 LABEL *   TDM Calculations  for SiS  from 3sig+ to 3sig-                                
  64 bit serial version                                                                  DATE: 21-Oct-24          TIME: 16:24:19  
 **********************************************************************************************************************************

 SHA1:             dade016a989826d9d859d6207854b99675d53db3
 **********************************************************************************************************************************

 Memory per process:      1000 MW
 Total memory per node:   1000 MW

 GA preallocation disabled
 GA check disabled

 Variable memory set to 1000.0 MW



 Permanent file  2  sis-sp-3sigm-3sigp-lz.wfu        assigned.  Implementation=df    Size= 17.78 MB


 PROGRAM * RESTART 


 Reading variables from file 2

 _FNUC           =      0.00000000
 _BASIS          =    AV5Z
 _NELEC          =     30.00000000
 _PROGRAM        =    CI
 _DMX(2:3)       =      0.00000000     0.00000000
 _DMY(2:3)       =      0.00000000     0.00000000
 _DMZ(1:3)       =     -0.22841553    -0.35221692     0.86225989
 _DMX_SCF        =      0.00000000
 _DMY_SCF        =      0.00000000
 _DMZ_SCF        =      0.98004551
 _HOMO           =      4.30000000
 _EHOMO          =     -0.21611354
 _LUMO           =     10.10000000
 _ELUMO          =      0.02692481
 _ENERGD(1:3)    =   -686.37939511  -686.37624847  -686.36316125
 _ENERGD0(1:3)   =   -686.37939511  -686.37624847  -686.36316125
 _ENERGD1(1:3)   =   -686.37978057  -686.37671041  -686.36330849
 _ENERGD2(1:3)   =   -686.37978057  -686.37671041  -686.36330849
 _ENERGD3(1:3)   =   -686.37939511  -686.37624847  -686.36316125
 _ENERGD4(1:3)   =   -686.37978057  -686.37671041  -686.36330849
 _ENERGP(1:3)    =   -686.37342676  -686.37032784  -686.35668616
 _ENERGP0(1:3)   =   -686.37342676  -686.37032784  -686.35668616
 _ENERGP1(1:3)   =   -686.37374969  -686.37071463  -686.35681017
 _ENERGP2(1:3)   =   -686.37374969  -686.37071463  -686.35681017
 _ENERGP3(1:3)   =   -686.37342676  -686.37032784  -686.35668616
 _ENERGP4(1:3)   =   -686.37374969  -686.37071463  -686.35681017
 _ENERGR(1:3)    =   -686.10317190  -686.09236080  -686.06965945
 _ENERGRR(1:3)   =   -686.09888953  -686.09664318  -686.06965945
 _ENERGY(1:3)    =   -686.35049290  -686.34761974  -686.33143571
 _ENERGY_METHOD  =    CI
 _ENERGY_BASIS   =    aug-cc-pV5Z
 _ENERGY_AVRG    =   -686.05233548
 _ENUC           =     79.02379683
 _IPROC_MPP      =      0.00000000
 _IPROC_MPPX     =      0.00000000
 _ORBITAL        =   2140.20000000
 _ROOT(1:3)      =      1.00000000     2.00000000     3.00000000
 _STATUS         =      1.00000000
 _TROV           =      0.00000000
 _LASTORB        =    MCSCF
 _OUTPUT         =    /home/molpro/SiS-3oct2024/dir-6/sis150-3sigp3mc.out
 _PGROUP         =    C2v 
 _TIME           =    13:25:16
 _C0(1:3)        =      0.89696386     0.89761020     0.89190682
 _C0R(1:3)       =      0.89573298     0.89612968     0.89145962
 _DMX_CC(1:4)    =     -0.00000000    -0.00000000    -0.00000000    -0.00000000
 _DMY_CC(1:4)    =     -0.00000000    -0.00000000    -0.00000000    -0.00000000
 _DMZ_CC(1:4)    =      1.85654199     1.85654199     1.85654199     1.85654199
 _DMX_NUC(1:4)   =      0.00000000     0.00000000     0.00000000     0.00000000
 _DMY_NUC(1:4)   =      0.00000000     0.00000000     0.00000000     0.00000000
 _DMZ_NUC(1:4)   =      0.02488404     0.02488404     0.02488404     0.02488404
 _SYM_CATION     =      3.00000000
 R               =      1.50000000
 _TRDMX(1:3)     =      0.00000000    -0.00000000     0.00000000
 _TRDMY(1:3)     =      0.00000000    -0.00000000     0.00000000
 _TRDMZ(1:3)     =     -1.15365369     0.00000003     0.00000030

 Geometry written to block  1 of record 700


 **********************************************************************************************************************************
 DATASETS  * FILE   NREC   LENGTH (MB)   RECORD NAMES
              2       7       17.78       500      610      700     1000      520     2100     2140   
                                          VAR    BASINP    GEOM     BASIS   MCVARS     RHF     MCSCF   

 PROGRAMS   *        TOTAL   RESTART
 CPU TIMES  *         0.11      0.01
 REAL TIME  *         0.12 SEC
 DISK USED  *        29.25 MB
 **********************************************************************************************************************************
 namx(1:10)LX        
 namx(1:10)LY        
 namx(1:10)LZ        
 SETTING BASIS          =    AV5Z
 SETTING R              =         1.50000000                                  

 DO I                   =         1.00000000   


 Using spherical harmonics

 Library entry SI     S aug-cc-pV5Z          selected for orbital group  1
 Library entry SI     P aug-cc-pV5Z          selected for orbital group  1
 Library entry SI     D aug-cc-pV5Z          selected for orbital group  1
 Library entry SI     F aug-cc-pV5Z          selected for orbital group  1
 Library entry SI     G aug-cc-pV5Z          selected for orbital group  1
 Library entry SI     H aug-cc-pV5Z          selected for orbital group  1
 Library entry S      S aug-cc-pV5Z          selected for orbital group  2
 Library entry S      P aug-cc-pV5Z          selected for orbital group  2
 Library entry S      D aug-cc-pV5Z          selected for orbital group  2
 Library entry S      F aug-cc-pV5Z          selected for orbital group  2
 Library entry S      G aug-cc-pV5Z          selected for orbital group  2
 Library entry S      H aug-cc-pV5Z          selected for orbital group  2


 PROGRAM * SEWARD (Integral evaluation for generally contracted gaussian basis sets)     Author: Roland Lindh, 1990

 Geometry written to block  1 of record 701

 Orientation using atomic masses  
 Molecule type: Linear
 Symmetry elements: X,Y
 Rotational constants:      15.0034845     15.0034845      0.0000000 GHz  (calculated with average atomic masses)

 Point group  C2v 



 ATOMIC COORDINATES

 NR  ATOM    CHARGE       X              Y              Z

   1  SI     14.00    0.000000000    0.000000000   -1.510951432
   2  S      16.00    0.000000000    0.000000000    1.323637755

 Bond lengths in Bohr (Angstrom)

 1-2  2.834589187
     ( 1.500000000)

 NUCLEAR CHARGE:                   30
 NUMBER OF PRIMITIVE AOS:         434
 NUMBER OF SYMMETRY AOS:          324
 NUMBER OF CONTRACTIONS:          262   (   96A1  +   64B1  +   64B2  +   38A2  )
 NUMBER OF INNER CORE ORBITALS:     2   (    2A1  +    0B1  +    0B2  +    0A2  )
 NUMBER OF OUTER CORE ORBITALS:     8   (    4A1  +    2B1  +    2B2  +    0A2  )
 NUMBER OF VALENCE ORBITALS:        8   (    4A1  +    2B1  +    2B2  +    0A2  )


 NUCLEAR REPULSION ENERGY   79.02379683

 EXTRA SYMMETRY OF AOS IN SYMMETRY 1:   1 1 1 1 1 1 1 1 1 1   1 1 1 1 1 1 2 1 2 1   2 1 2 1 2 1 2 1 2 1   2 1 2 1 3 2 1 3 2 1
                                        3 2 2 3 1 2 3 1 1 1   1 1 1 1 1 1 1 1 1 1   1 1 1 1 2 1 2 1 2 1   2 1 2 1 2 1 2 1 2 1
                                        2 1 3 2 1 3 2 1 3 2   2 3 1 2 3 1
 EXTRA SYMMETRY OF AOS IN SYMMETRY 2:   1 1 1 1 1 1 1 1 1 1   1 1 1 2 1 2 1 2 1 2   1 2 1 2 1 2 1 2 3 1   2 3 1 1 1 1 1 1 1 1
                                        1 1 1 1 1 2 1 2 1 2   1 2 1 2 1 2 1 2 1 2   3 1 2 3
 EXTRA SYMMETRY OF AOS IN SYMMETRY 3:   1 1 1 1 1 1 1 1 1 1   1 1 1 2 1 2 1 2 1 2   1 2 1 2 1 2 1 2 3 1   2 3 1 1 1 1 1 1 1 1
                                        1 1 1 1 1 2 1 2 1 2   1 2 1 2 1 2 1 2 1 2   3 1 2 3
 EXTRA SYMMETRY OF AOS IN SYMMETRY 4:   1 1 1 1 1 1 1 1 1 1   2 1 2 1 2 2 1 2 1 1   1 1 1 1 1 1 1 1 1 2   1 2 1 2 2 1 2 1

 Eigenvalues of metric

         1 0.510E-05 0.628E-05 0.116E-04 0.167E-04 0.207E-04 0.868E-04 0.108E-03 0.297E-03
         2 0.790E-05 0.860E-05 0.116E-03 0.806E-03 0.998E-03 0.166E-02 0.501E-02 0.123E-01
         3 0.790E-05 0.860E-05 0.116E-03 0.806E-03 0.998E-03 0.166E-02 0.501E-02 0.123E-01
         4 0.598E-03 0.382E-02 0.140E-01 0.203E-01 0.459E-01 0.535E-01 0.617E-01 0.838E-01


 Contracted 2-electron integrals neglected if value below      1.0D-12
 AO integral compression algorithm  1   Integral accuracy      1.0D-12

     667.156 MB (compressed) written to integral file ( 46.0%)


 NUMBER OF SORTED TWO-ELECTRON INTEGRALS:  150955559.     BUFFER LENGTH:  32768
 NUMBER OF SEGMENTS:  10  SEGMENT LENGTH:   15998976      RECORD LENGTH: 524288

 Memory used in sort:      16.56 MW

 SORT1 READ   181316810. AND WROTE   100603426. INTEGRALS IN    293 RECORDS. CPU TIME:     2.02 SEC, REAL TIME:     2.55 SEC
 SORT2 READ   100603426. AND WROTE   150955559. INTEGRALS IN   2545 RECORDS. CPU TIME:     1.56 SEC, REAL TIME:     1.86 SEC

 FILE SIZES:   FILE 1:   698.8 MBYTE,  FILE 4:  1229.0 MBYTE,   TOTAL:   1927.8 MBYTE

 OPERATOR DM      FOR CENTER  0  COORDINATES:    0.000000    0.000000    0.000000
 OPERATOR LOP     FOR CENTER  0  COORDINATES:    0.000000    0.000000    0.000000
 OPERATOR LOP     FOR CENTER  0  COORDINATES:    0.000000    0.000000    0.000000
 OPERATOR LOP     FOR CENTER  0  COORDINATES:    0.000000    0.000000    0.000000


 **********************************************************************************************************************************
 DATASETS  * FILE   NREC   LENGTH (MB)   RECORD NAMES
              1      20      549.93       500      700      610      701      900      950      970     1000      129      960   
                                          VAR     GEOM    BASINP    GEOM    SYMINP    ZMAT    AOBASIS   BASIS     P2S    ABASIS    
                                         1100     1400     1410     1200     1210     1080     1600     1650     1300     1700   
                                           S        T        V       H0       H01     AOSYM     SMH    MOLCAS    ERIS     OPER   

              2       8       18.38       500      610      700     1000      520     2100     2140      701   
                                          VAR    BASINP    GEOM     BASIS   MCVARS     RHF     MCSCF    GEOM   

 PROGRAMS   *        TOTAL       INT   RESTART
 CPU TIMES  *        37.20     37.09      0.01
 REAL TIME  *        38.59 SEC
 DISK USED  *         1.81 GB
 **********************************************************************************************************************************

 PROGRAM * MULTI (Direct Multiconfiguration SCF)       Authors: P.J. Knowles, H.-J. Werner (1984)
                                                                D.A. Kreplin, P.J. Knowles, H.-J. Werner (2019)

 Number of closed-shell orbitals:  10 (   6   2   2   0 )
 Number of active  orbitals:        8 (   4   2   2   0 )
 Number of external orbitals:     244 (  86  60  60  38 )

 State symmetry 1

 Number of active electrons:  10    Spin symmetry=Triplet   Space symmetry=1
 Number of states:             4
 Number of CSFs:             360   (464 determinants, 1960 intermediate states)

 State symmetry 2

 Number of active electrons:  10    Spin symmetry=Triplet   Space symmetry=4
 Number of states:             3
 Number of CSFs:             384   (504 determinants, 1960 intermediate states)

 Molecular orbitals read from record     2140.2  Type=MCSCF/NATURAL (state averaged)

 EXTRA SYMMETRY OF MOS IN SYMMETRY 1:   1 1 1 1 1 1 1 1 1 1   1 1 1 2 1 1 1 2 2 1   1 1 2 1 1 2 1 2 3 1   1 2 1 2 1 2 1 3 1 2
                                        1 2 1 1 2 1 2 3 1 2   3 1 2 1 1 1 3 2 2 1   3 1 2 2 1 1 1 2 1 2   3 3 1 2 1 1 2 1 2 1
                                        3 1 3 2 1 2 2 1 1 1   2 1 1 1 1 1
 EXTRA SYMMETRY OF MOS IN SYMMETRY 2:   1 1 1 1 1 1 1 1 2 1   1 1 1 2 1 1 2 1 2 1   1 1 2 1 2 1 1 2 1 3   1 2 1 2 1 2 3 1 1 2
                                        1 2 2 1 1 1 3 2 1 2   1 1 2 1 1 3 2 1 2 1   1 1 1 1
 EXTRA SYMMETRY OF MOS IN SYMMETRY 3:   1 1 1 1 1 1 1 1 2 1   1 1 1 2 1 1 2 1 2 1   1 1 2 1 2 1 1 2 1 3   1 2 1 2 1 2 3 1 1 2
                                        1 2 2 1 1 1 3 2 1 2   1 1 2 1 1 3 2 1 2 1   1 1 1 1
 EXTRA SYMMETRY OF MOS IN SYMMETRY 4:   1 1 1 1 1 1 2 1 1 1   2 1 1 1 1 2 1 2 1 2   1 1 2 1 1 1 1 2 2 1   1 1 2 2 1 1 1 1

 Wavefunction dump at record             2140.2

 Convergence thresholds  0.10E-04 (gradient)  0.10E-05 (energy)

 Weight factors for state symmetry  1:    0.14286   0.14286   0.14286   0.14286
 Weight factors for state symmetry  2:    0.14286   0.14286   0.14286
 
 Number of orbital rotations:  1372  ( 32 closed/active, 756 closed/virtual, 0 active/active, 584 active/virtual )
 Total number of variables:    4740
 
  Second-order MCSCF: L-BFGS accelerated
 
 ITER  MIC  NCI  NEG     ENERGY(VAR)    ENERGY(PROJ) ENERGY CHANGE       GRAD(0)  GRAD(ORB)   GRAD(CI)      STEP      TIME
   1   13   41    0   -686.04339529    -686.04636674   -0.00297145    0.03596739 0.00000420 0.00000768  0.15E+00      1.62
   2   14   43    0   -686.04639494    -686.04639698   -0.00000204    0.00163965 0.00000020 0.00000039  0.24E-02      3.31
   3    9   20    0   -686.04639698    -686.04639698   -0.00000000    0.00000108 0.00000000 0.00000002  0.33E-05      4.77

 CONVERGENCE REACHED!  Final gradient:    0.00000001 ( 0.62E-08)
                       Final energy:   -686.04639698
 
 Results for state 1.1
 =====================
 !MCSCF STATE 1.1 Energy                      -686.096997435617
 Nuclear energy                                 79.02379683
 Kinetic energy                                687.91364589
 One electron energy                         -1104.48889393
 Two electron energy                           339.36809967
 Virial ratio                                    1.99735919
 
 !MCSCF STATE 1.1 Dipole moment                  0.00000000     0.00000000    -1.26856876
 Dipole moment /Debye                            0.00000000     0.00000000    -3.22438016
 
 Results for state 2.1
 =====================
 !MCSCF STATE 2.1 Energy                      -686.091888131594
 Nuclear energy                                 79.02379683
 Kinetic energy                                688.88808012
 One electron energy                         -1106.92059601
 Two electron energy                           341.80491105
 Virial ratio                                    1.99594101
 
 !MCSCF STATE 2.1 Dipole moment                  0.00000000     0.00000000     1.01905208
 Dipole moment /Debye                            0.00000000     0.00000000     2.59017202
 
 Results for state 3.1
 =====================
 !MCSCF STATE 3.1 Energy                      -686.072653807503
 Nuclear energy                                 79.02379683
 Kinetic energy                                688.95509510
 One electron energy                         -1107.07457723
 Two electron energy                           341.97812659
 Virial ratio                                    1.99581621
 
 !MCSCF STATE 3.1 Dipole moment                  0.00000000     0.00000000     1.02650711
 Dipole moment /Debye                            0.00000000     0.00000000     2.60912083
 
 Results for state 4.1
 =====================
 !MCSCF STATE 4.1 Energy                      -685.939948870335
 Nuclear energy                                 79.02379683
 Kinetic energy                                687.70976047
 One electron energy                         -1103.29721145
 Two electron energy                           338.33346575
 Virial ratio                                    1.99742651
 
 !MCSCF STATE 4.1 Dipole moment                  0.00000000     0.00000000     0.10318107
 Dipole moment /Debye                            0.00000000     0.00000000     0.26226013
 
 Results for state 1.4
 =====================
 !MCSCF STATE 1.4 Energy                      -686.072653807504
 Nuclear energy                                 79.02379683
 Kinetic energy                                688.95509510
 One electron energy                         -1107.07457723
 Two electron energy                           341.97812659
 Virial ratio                                    1.99581621
 
 !MCSCF STATE 1.4 Dipole moment                  0.00000000     0.00000000     1.02650711
 Dipole moment /Debye                            0.00000000     0.00000000     2.60912082
 
 Results for state 2.4
 =====================
 !MCSCF STATE 2.4 Energy                      -686.063667260075
 Nuclear energy                                 79.02379683
 Kinetic energy                                688.93394014
 One electron energy                         -1107.08991823
 Two electron energy                           342.00245414
 Virial ratio                                    1.99583375
 
 !MCSCF STATE 2.4 Dipole moment                  0.00000000     0.00000000     0.93862601
 Dipole moment /Debye                            0.00000000     0.00000000     2.38574935
 
 Results for state 3.4
 =====================
 !MCSCF STATE 3.4 Energy                      -685.986969568016
 Nuclear energy                                 79.02379683
 Kinetic energy                                688.20289467
 One electron energy                         -1106.54252355
 Two electron energy                           341.53175715
 Virial ratio                                    1.99678013
 
 !MCSCF STATE 3.4 Dipole moment                  0.00000000     0.00000000     0.09904299
 Dipole moment /Debye                            0.00000000     0.00000000     0.25174216
 
 State-averaged charge density matrix saved on record 2140.2 (density set 1)
 
 Expectation values: (only non-zero values are shown)
 
 !MCSCF expec                       <1.1|DMZ|1.1>    -1.268568756394 au =    -3.224380162569 Debye
 !MCSCF expec                       <2.1|DMZ|2.1>     1.019052077175 au =     2.590172023161 Debye
 !MCSCF expec                       <3.1|DMZ|3.1>     1.026507110749 au =     2.609120828455 Debye
 !MCSCF expec                       <4.1|DMZ|4.1>     0.103181073392 au =     0.262260129395 Debye
 !MCSCF expec                       <1.4|DMZ|1.4>     1.026507109126 au =     2.609120824329 Debye
 !MCSCF expec                       <2.4|DMZ|2.4>     0.938626010486 au =     2.385749351800 Debye
 !MCSCF expec                       <3.4|DMZ|3.4>     0.099042985289 au =     0.251742158552 Debye
 
 Transition values: (only non-zero values with the ground state are shown)
 
 !MCSCF trans                       <1.1|DMZ|2.1>    -0.440736981643 au =    -1.120241668698 Debye
 !MCSCF trans                       <1.1|DMZ|4.1>    -0.700954309389 au =    -1.781648143761 Debye
 

 EXTRA SYMMETRY OF MOS IN SYMMETRY 1:   1 1 1 1 1 1 1 1 1 1   1 1 1 2 1 1 1 2 2 1   1 1 2 1 1 2 1 2 3 1   1 2 1 2 1 2 1 3 1 2
                                        1 2 1 1 2 1 2 1 3 2   3 1 2 1 1 1 3 2 2 1   3 1 2 2 1 1 1 2 1 2   3 3 1 2 1 1 2 1 2 1
                                        3 1 3 2 1 2 2 1 1 1   2 1 1 1 1 1
 
 Natural orbital dump (state averaged) at molpro section 2140.2 (Orbital set 2)
 
 Reoptimze the CI vectors with natural orbitals 
 
 CI Coefficients of symmetry 1
 =============================
 
 22aa 20 20      0.93402371      0.16247156      0.00000000     -0.13315076
 2a2a 20 20      0.04750640      0.01139448     -0.00000000      0.88390009
 2220 20 aa     -0.12194817      0.68729694      0.69741333     -0.00930221
 2220 aa 20     -0.12194817      0.68729694     -0.69741333     -0.00930221
 22aa ba 20     -0.13149095     -0.03160819      0.00756705     -0.23013290
 22aa 20 ba     -0.13149095     -0.03160819     -0.00756705     -0.23013290
 22ba aa 20      0.04208234      0.01985553     -0.01107128      0.13706758
 22ba 20 aa      0.04208234      0.01985553      0.01107128      0.13706758
 2a0a 20 22      0.03708415      0.00586921     -0.00029855     -0.09203032
 2a0a 22 20      0.03708415      0.00586921      0.00029855     -0.09203032
 2a2a ba 20     -0.09011878     -0.01937678      0.00404683     -0.03070570
 2a2a 20 ba     -0.09011878     -0.01937678     -0.00404683     -0.03070570
 22aa 20 ab      0.07423031      0.01286703     -0.00022718      0.06440220
 22aa ab 20      0.07423031      0.01286703      0.00022718      0.06440220
 2200 22 aa      0.01157727     -0.06460405     -0.06926717     -0.00145352
 2200 aa 22      0.01157727     -0.06460405      0.06926717     -0.00145352
 22aa 02 20     -0.05666183     -0.00540307     -0.00458168     -0.01517023
 22aa 20 02     -0.05666183     -0.00540307      0.00458168     -0.01517023
 2a2a 20 ab      0.05508744      0.00514649     -0.00460368     -0.00334128
 2a2a ab 20      0.05508744      0.00514649      0.00460368     -0.00334128
 
 Energy:      -686.09699744   -686.09188813   -686.07265381   -685.93994887
 
 
 CI Coefficients of symmetry 4
 =============================
 
 2200 2a 2a     -0.00000000      0.16760054      0.90182686
 2220 a0 2a     -0.69741333      0.68081185     -0.12073375
 2220 2a a0      0.69741333      0.68081185     -0.12073375
 2020 2a 2a      0.00000000     -0.00551726     -0.22604243
 2ba0 2a 2a     -0.00000000      0.03467921     -0.20889789
 2aa0 2a 2b      0.01312818      0.02550345      0.13580741
 2aa0 2b 2a     -0.01312818      0.02550345      0.13580741
 2ab0 2a 2a      0.00000000     -0.08568610     -0.06271694
 2200 2a a2     -0.06926717     -0.07579557      0.00024007
 2200 a2 2a      0.06926717     -0.07579557      0.00024007
 2ba0 2a a2     -0.03572085     -0.04240558     -0.06152772
 2ba0 a2 2a      0.03572085     -0.04240558     -0.06152772
 
 Energy:      -686.07265381   -686.06366726   -685.98696957
 


 **********************************************************************************************************************************
 DATASETS  * FILE   NREC   LENGTH (MB)   RECORD NAMES
              1      21      585.24       500      700      610      701      900      950      970     1000      129      960   
                                          VAR     GEOM    BASINP    GEOM    SYMINP    ZMAT    AOBASIS   BASIS     P2S    ABASIS    
                                         1100     1400     1410     1200     1210     1080     1600     1650     1300     1700   
                                           S        T        V       H0       H01     AOSYM     SMH    MOLCAS    ERIS     OPER   
                                         1380   
                                         JKOP   

              2       9       18.38       500      610      700     1000      520     2100     2140      701     2140(1)
                                          VAR    BASINP    GEOM     BASIS   MCVARS     RHF     MCSCF    GEOM     MCSCF   

 PROGRAMS   *        TOTAL     MULTI       INT   RESTART
 CPU TIMES  *        42.67      5.46     37.09      0.01
 REAL TIME  *        44.71 SEC
 DISK USED  *         1.81 GB
 **********************************************************************************************************************************


 PROGRAM * CI (Multireference internally contracted CI)     Authors: H.-J. Werner, P.J. Knowles, 1987


 Convergence thresholds:  THRVAR = 1.00D-08  THRDEN = 1.00D-06

 Number of optimized states: 3  Roots:    1   2   3
 Number of reference states: 3  Roots:    1   2   3

 Program parameters:       NSTATE=  3    NSTATI=  4    NSTATR=  3    NCEPA = -1    NOKOP =  0    ITRDM =  0    ITRANS=  0
                           IDIP  =200    MAXIT =250    MAXITI=250    MAXDAV=  9    MAXVI = 12    NOSING=  0    NOPAIR=  0
                           MXSHRF=  5    IKCPS =  0    IOPTGM=  2    IOPTOR=  0    REFOPT=  1    IAVDEN=  0    IDELCG=  1
                           IREST =  0    NATORB=  0    IPUNRF=  0    ISEP  =  0    OLDDEN=  0    NSTPRI=  1    GPSFLI= -1
                           CLUSTE=  0    CLOSED=  1    ILSTYP=  0    ITRLS =  0    ICCSD =  0    LOCAL =  0    IBASO =  0
                           MP    =  0    ITEDIS=  2    INCDIS=  1    MAXDIS=  6    ITYDIS=  1    BRUECK=  0    IBRSTR=  3
                           INCBRK=  1    TRIPLE=  0    ICCTYP=  2    IHPPD =  0    ICCNEW=  0    I3EXT = -1    IDEB  =  0
                           IDLEIG=  1    IDFTYP=  1    IMP3  =  0    IPROCS=  0    NOINT =  0    NOREF =  1    IMP2G =  0
                           IHINT =  0    IFDIA =  0    ISPARO=  1    JKSYM =  0    CPHF  =  0    MP2D  = -1    DKINT =  0
                           NPKEX =  1    DRVK  =  1    HLSTRA=  1    WIGNER=  1    DIIS_C=  1    MAXIT_= 50    MATEL =  0
                           SPDEG =  1    MEMCPH=  0    DISM  =  1    KDCPMA=  5    IKDCP_=  0    IREDTH=  0    USECS =  0
                           IPROCC=  0    I3SAVE=  1    IKDCP =  1    USECI =  0    OLDPAI=  0    IPROCI=  0    KEEPCL=  1
                           DISCON=  0    SHIFTE=  0    DIISIN=  0    MOLCAS=  0    MEM_PT=  0    RECORD=  0    RS2C  =  0
                           KEXT  = -1    CIPT2 =  0    DECP0S=  0    I4EXT = -1    NATCOR=  0    RIMP2 =  0    DDCI  = -1
                           IPOLAR=  0

 Reference symmetry:                   1   Triplet 
 Number of electrons:                 30
 Maximum number of shells:             5
 Maximum number of spin couplings:    90

 Reference space:      184 conf      360 CSFs
 N elec internal:      728 conf     1512 CSFs
 N-1 el internal:     1016 conf     3696 CSFs
 N-2 el internal:     1091 conf     7140 CSFs

 Number of electrons in valence space:                     10
 Maximum number of open shell orbitals in reference space:  6
 Maximum number of open shell orbitals in internal spaces: 10


 Number of core orbitals:          10 (   6   2   2   0 )
 Number of active  orbitals:        8 (   4   2   2   0 )
 Number of external orbitals:     244 (  86  60  60  38 )

 Molecular orbitals read from record     2140.2  Type=MCSCF/NATURAL (state averaged)

 Valence orbitals related to previous ones by unitary transformation. Operators transformed.


 Number of p-space configurations:  20

 Reference wavefunction optimized for reference space (refopt=1)

 State     Reference Energy 
     1      -686.09699744
     2      -686.09188813
     3      -686.07265381
     4      -685.93994887

 Number of blocks in overlap matrix:     8   Smallest eigenvalue:  0.13D-02
 Number of N-2 electron functions:     192
 Number of N-1 electron functions:    3696

 Number of internal configurations:                  360
 Number of singly external configurations:        226032
 Number of doubly external configurations:       1459440
 Total number of contracted configurations:      1685832
 Total number of uncontracted configurations:   53355776

 Diagonal Coupling coefficients finished.               Storage:  341663 words, CPU-Time:      0.09 seconds.
 Energy denominators for pairs finished in 1 passes.    Storage:  468902 words, CPU-time:      0.03 seconds.

  ITER. STATE  ROOT     SQ.NORM     CORR.ENERGY   TOTAL ENERGY   ENERGY CHANGE       DEN1      VAR(S)    VAR(P)      TIME
    1     1     1     1.00000000     0.00000000  -686.09699744    -0.00000000    -0.25510481  0.59D-01  0.59D-01     0.60
    1     2     2     1.00000000     0.00000000  -686.09188813     0.00000000    -0.26139994  0.58D-01  0.62D-01     0.60
    1     3     3     1.00000000     0.00000000  -686.07265381    -0.00000000    -0.26679294  0.61D-01  0.64D-01     0.60
    2     1     1     1.10791660    -0.24410552  -686.34110295    -0.24410552    -0.00685777  0.17D-02  0.14D-02    16.64
    2     2     2     1.10626513    -0.24630919  -686.33819732    -0.24630919    -0.00740657  0.21D-02  0.14D-02    16.64
    2     3     3     1.11003397    -0.25083485  -686.32348866    -0.25083485    -0.00684914  0.17D-02  0.14D-02    16.64
    3     1     1     1.11412276    -0.25172840  -686.34872584    -0.00762289    -0.00052526  0.15D-03  0.11D-03    32.56
    3     2     2     1.11229371    -0.25407220  -686.34596033    -0.00776301    -0.00052991  0.15D-03  0.10D-03    32.56
    3     3     3     1.11634805    -0.25846249  -686.33111629    -0.00762764    -0.00047088  0.10D-03  0.11D-03    32.56
    4     1     1     1.11757802    -0.25233252  -686.34932995    -0.00060412    -0.00005601  0.18D-04  0.10D-04    48.45
    4     2     2     1.11548844    -0.25465918  -686.34654732    -0.00058698    -0.00005344  0.17D-04  0.97D-05    48.45
    4     3     3     1.11971430    -0.25903642  -686.33169023    -0.00057394    -0.00004635  0.11D-04  0.96D-05    48.45
    5     1     1     1.11844123    -0.25239960  -686.34939704    -0.00006709    -0.00000756  0.29D-05  0.12D-05    64.36
    5     2     2     1.11627141    -0.25472056  -686.34660869    -0.00006138    -0.00000664  0.24D-05  0.11D-05    64.36
    5     3     3     1.12040825    -0.25909411  -686.33174792    -0.00005769    -0.00000557  0.18D-05  0.99D-06    64.36
    6     1     1     1.11857576    -0.25240859  -686.34940602    -0.00000898    -0.00000122  0.57D-06  0.17D-06    80.38
    6     2     2     1.11636699    -0.25472834  -686.34661647    -0.00000778    -0.00000094  0.36D-06  0.16D-06    80.38
    6     3     3     1.12048682    -0.25910060  -686.33175441    -0.00000649    -0.00000075  0.26D-06  0.13D-06    80.38
    7     1     1     1.11865659    -0.25241001  -686.34940745    -0.00000143    -0.00000026  0.14D-06  0.32D-07    96.43
    7     2     2     1.11641710    -0.25472944  -686.34661757    -0.00000110    -0.00000019  0.96D-07  0.28D-07    96.43
    7     3     3     1.12055147    -0.25910150  -686.33175530    -0.00000089    -0.00000013  0.54D-07  0.21D-07    96.43
    8     1     1     1.11869308    -0.25241031  -686.34940774    -0.00000030    -0.00000006  0.31D-07  0.70D-08   112.47
    8     2     2     1.11644008    -0.25472965  -686.34661778    -0.00000021    -0.00000004  0.21D-07  0.60D-08   112.47
    8     3     3     1.12058313    -0.25910165  -686.33175546    -0.00000016    -0.00000003  0.10D-07  0.38D-08   112.47
    9     1     1     1.11870444    -0.25241037  -686.34940781    -0.00000007    -0.00000001  0.73D-08  0.14D-08   128.43
    9     2     2     1.11644582    -0.25472970  -686.34661783    -0.00000005    -0.00000001  0.47D-08  0.13D-08   128.43
    9     3     3     1.12059133    -0.25910168  -686.33175549    -0.00000003    -0.00000000  0.20D-08  0.76D-09   128.43


 =====================================
 Analysis of CPU times by interactions
 =====================================

       I      S      P

 I   0.1%
 S   0.1%   2.0%
 P   0.5%   9.2%  52.3%

 Initialization:   0.4%
 Other:           35.4%

 Total CPU:      128.4 seconds
 =====================================



 gnormi=  0.89389115  gnorms=  0.04620821  gnormp=  0.05990063  gnorm=  1.00000000
 ecorri= -0.22562740  ecorrs= -0.01166479  ecorrp= -0.01511818  ecorr= -0.25241037

 gnormi=  0.89569953  gnorms=  0.04518337  gnormp=  0.05911710  gnorm=  1.00000000
 ecorri= -0.22816127  ecorrs= -0.01151015  ecorrp= -0.01505828  ecorr= -0.25472970

 gnormi=  0.89238598  gnorms=  0.04652297  gnormp=  0.06109105  gnorm=  1.00000000
 ecorri= -0.23121871  ecorrs= -0.01205521  ecorrp= -0.01582776  ecorr= -0.25910168

 Wavefunction saved on  8340.2

 Reference coefficients greater than 0.0500000
 =============================================
 22//2020           0.5688193   0.7110103  -0.0000000
 2220//20          -0.5172056   0.4125648   0.6607699
 222020//          -0.5172056   0.4125648  -0.6607699
 22//\/20          -0.0579871  -0.0867860  -0.0081866
 22//20\/          -0.0579871  -0.0867860   0.0081866
 2200//22           0.0443583  -0.0356541  -0.0605178
 220022//           0.0443584  -0.0356541   0.0605178
 2/2/20\/          -0.0406533  -0.0601798   0.0057000
 2/2/\/20          -0.0406533  -0.0601798  -0.0057000
 22///\20           0.0437448   0.0532092  -0.0000806
 22//20/\           0.0437448   0.0532092   0.0000805

 Coefficients of fixed reference functions:
 ==========================================

 State      Coefficients
 1           0.708771   -0.624645   -0.000000
 2           0.625405    0.708908    0.000000
 3          -0.000000    0.000000    0.944333

 Coefficients of rotated reference functions:
 ============================================

 State      Coefficients
 1           0.944742    0.000240   -0.000000
 2           0.000240    0.945347    0.000000
 3          -0.000000    0.000000    0.944333


 RESULTS FOR STATE 1.1
 =====================

 Coefficient of reference function:   C(0) = 0.70877145 (fixed)   0.94545817 (relaxed)   0.94474218 (rotated)

 Energy contributions of configuration classes

 CLASS          SQ.NORM        ECORR1        ECORR2
 +++++++++++++++++++++++++++++++++++++++++++++++++++
 Internals    0.00151630   -0.00000064   -0.16230676
 Singles      0.05177172   -0.07094450   -0.07498544
 Pairs        0.06711271    0.00000001   -0.01511818
 Total        1.12040073   -0.07094513   -0.25241037
 +++++++++++++++++++++++++++++++++++++++++++++++++++


 Reference energy                    -686.09476257
 Nuclear energy                        79.02379683
 Kinetic energy                       688.70822956
 One electron energy                -1106.19910093
 Two electron energy                  340.82589629
 Virial quotient                       -0.99657501
 Correlation energy                    -0.25464524
 !MRCI STATE 1.1 Energy              -686.349407809511

 Properties without orbital relaxation:

 !MRCI STATE 1.1 Dipole moment          0.00000000     0.00000000     0.10363988
 Dipole moment /Debye                   0.00000000     0.00000000     0.26342629

 Cluster corrected energies          -686.38006728 (Davidson, fixed reference)
 Cluster corrected energies          -686.37963533 (Davidson, relaxed reference)
 Cluster corrected energies          -686.38006728 (Davidson, rotated reference)

 Cluster corrected energies          -686.37380053 (Pople, fixed reference)
 Cluster corrected energies          -686.37343736 (Pople, relaxed reference)
 Cluster corrected energies          -686.37380053 (Pople, rotated reference)







 RESULTS FOR STATE 2.1
 =====================

 Coefficient of reference function:   C(0) = 0.70890756 (fixed)   0.94641404 (relaxed)   0.94534722 (rotated)

 Energy contributions of configuration classes

 CLASS          SQ.NORM        ECORR1        ECORR2
 +++++++++++++++++++++++++++++++++++++++++++++++++++
 Internals    0.00225825   -0.00000064   -0.16507150
 Singles      0.05055870   -0.07059537   -0.07459992
 Pairs        0.06615008   -0.00000001   -0.01505828
 Total        1.11896704   -0.07059602   -0.25472970
 +++++++++++++++++++++++++++++++++++++++++++++++++++


 Reference energy                    -686.09412300
 Nuclear energy                        79.02379683
 Kinetic energy                       688.53113257
 One electron energy                -1105.65296050
 Two electron energy                  340.28254584
 Virial quotient                       -0.99682728
 Correlation energy                    -0.25249483
 !MRCI STATE 2.1 Energy              -686.346617830858

 Properties without orbital relaxation:

 !MRCI STATE 2.1 Dipole moment          0.00000000     0.00000000    -0.44621628
 Dipole moment /Debye                   0.00000000     0.00000000    -1.13416866

 Cluster corrected energies          -686.37665639 (Davidson, fixed reference)
 Cluster corrected energies          -686.37601980 (Davidson, relaxed reference)
 Cluster corrected energies          -686.37665639 (Davidson, rotated reference)

 Cluster corrected energies          -686.37050017 (Pople, fixed reference)
 Cluster corrected energies          -686.36996585 (Pople, relaxed reference)
 Cluster corrected energies          -686.37050017 (Pople, rotated reference)







 RESULTS FOR STATE 3.1
 =====================

 Coefficient of reference function:   C(0) = 0.94433297 (fixed)   0.94466184 (relaxed)   0.94433297 (rotated)

 Energy contributions of configuration classes

 CLASS          SQ.NORM        ECORR1        ECORR2
 +++++++++++++++++++++++++++++++++++++++++++++++++++
 Internals    0.00069661    0.00000000   -0.00016096
 Singles      0.05216955   -0.07194130   -0.07620993
 Pairs        0.06850579   -0.18716038   -0.18273079
 Total        1.12137195   -0.25910168   -0.25910168
 +++++++++++++++++++++++++++++++++++++++++++++++++++


 Reference energy                    -686.07265381
 Nuclear energy                        79.02379683
 Kinetic energy                       688.98829658
 One electron energy                -1106.94219649
 Two electron energy                  341.58664417
 Virial quotient                       -0.99614429
 Correlation energy                    -0.25910168
 !MRCI STATE 3.1 Energy              -686.331755487566

 Properties without orbital relaxation:

 !MRCI STATE 3.1 Dipole moment          0.00000000     0.00000000     0.96615336
 Dipole moment /Debye                   0.00000000     0.00000000     2.45571691

 Cluster corrected energies          -686.36320317 (Davidson, fixed reference)
 Cluster corrected energies          -686.36300090 (Davidson, relaxed reference)
 Cluster corrected energies          -686.36320317 (Davidson, rotated reference)

 Cluster corrected energies          -686.35678693 (Pople, fixed reference)
 Cluster corrected energies          -686.35661665 (Pople, relaxed reference)
 Cluster corrected energies          -686.35678693 (Pople, rotated reference)






 !MRCI trans          <2.1|DMZ|1.1>    -1.105182219826 au =    -2.809093009479 Debye

 !MRCI trans          <3.1|DMZ|1.1>    -0.000000218668 au =    -0.000000555798 Debye

 !MRCI trans          <3.1|DMZ|2.1>     0.000000761590 au =     0.000001935768 Debye


 **********************************************************************************************************************************
 DATASETS  * FILE   NREC   LENGTH (MB)   RECORD NAMES
              1      21      585.24       500      700      610      701      900      950      970     1000      129      960   
                                          VAR     GEOM    BASINP    GEOM    SYMINP    ZMAT    AOBASIS   BASIS     P2S    ABASIS    
                                         1100     1400     1410     1200     1210     1080     1600     1650     1300     1700   
                                           S        T        V       H0       H01     AOSYM     SMH    MOLCAS    ERIS     OPER   
                                         1380   
                                         JKOP   

              2      10       58.12       500      610      700     1000      520     2100     2140      701     2140(1)  8340   
                                          VAR    BASINP    GEOM     BASIS   MCVARS     RHF     MCSCF    GEOM     MCSCF    MRCI   

 PROGRAMS   *        TOTAL        CI     MULTI       INT   RESTART
 CPU TIMES  *       171.78    129.10      5.46     37.09      0.01
 REAL TIME  *       178.26 SEC
 DISK USED  *         1.81 GB
 **********************************************************************************************************************************


 PROGRAM * CI (Multireference internally contracted CI)     Authors: H.-J. Werner, P.J. Knowles, 1987


 Convergence thresholds:  THRVAR = 1.00D-08  THRDEN = 1.00D-06

 Number of optimized states: 2  Roots:    1   2
 Number of reference states: 2  Roots:    1   2

 Program parameters:       NSTATE=  2    NSTATI=  3    NSTATR=  2    NCEPA = -1    NOKOP =  0    ITRDM =  0    ITRANS=  0
                           IDIP  =200    MAXIT =250    MAXITI=250    MAXDAV=  6    MAXVI =  9    NOSING=  0    NOPAIR=  0
                           MXSHRF=  5    IKCPS =  0    IOPTGM=  2    IOPTOR=  0    REFOPT=  1    IAVDEN=  0    IDELCG=  1
                           IREST =  0    NATORB=  0    IPUNRF=  0    ISEP  =  0    OLDDEN=  0    NSTPRI=  1    GPSFLI= -1
                           CLUSTE=  0    CLOSED=  1    ILSTYP=  0    ITRLS =  0    ICCSD =  0    LOCAL =  0    IBASO =  0
                           MP    =  0    ITEDIS=  2    INCDIS=  1    MAXDIS=  6    ITYDIS=  1    BRUECK=  0    IBRSTR=  3
                           INCBRK=  1    TRIPLE=  0    ICCTYP=  2    IHPPD =  0    ICCNEW=  0    I3EXT = -1    IDEB  =  0
                           IDLEIG=  1    IDFTYP=  1    IMP3  =  0    IPROCS=  0    NOINT =  0    NOREF =  1    IMP2G =  0
                           IHINT =  0    IFDIA =  0    ISPARO=  1    JKSYM =  0    CPHF  =  0    MP2D  = -1    DKINT =  0
                           NPKEX =  1    DRVK  =  1    HLSTRA=  1    WIGNER=  1    DIIS_C=  1    MAXIT_= 50    MATEL =  0
                           SPDEG =  1    MEMCPH=  0    DISM  =  1    KDCPMA=  5    IKDCP_=  0    IREDTH=  0    USECS =  0
                           IPROCC=  0    I3SAVE=  1    IKDCP =  1    USECI =  0    OLDPAI=  0    IPROCI=  0    KEEPCL=  1
                           DISCON=  0    SHIFTE=  0    DIISIN=  0    MOLCAS=  0    MEM_PT=  0    RECORD=  0    RS2C  =  0
                           KEXT  = -1    CIPT2 =  0    DECP0S=  0    I4EXT = -1    NATCOR=  0    RIMP2 =  0    DDCI  = -1
                           IPOLAR=  0

 Reference symmetry:                   4   Triplet 
 Number of electrons:                 30
 Maximum number of shells:             5
 Maximum number of spin couplings:    90

 Reference space:      160 conf      384 CSFs
 N elec internal:      728 conf     1512 CSFs
 N-1 el internal:     1012 conf     3692 CSFs
 N-2 el internal:      928 conf     6529 CSFs

 Number of electrons in valence space:                     10
 Maximum number of open shell orbitals in reference space:  6
 Maximum number of open shell orbitals in internal spaces: 10


 Number of core orbitals:          10 (   6   2   2   0 )
 Number of active  orbitals:        8 (   4   2   2   0 )
 Number of external orbitals:     244 (  86  60  60  38 )

 Molecular orbitals read from record     2140.2  Type=MCSCF/NATURAL (state averaged)

 Coulomb and exchange operators available. No transformation done.


 Number of p-space configurations:  22

 Reference wavefunction optimized for reference space (refopt=1)

 State     Reference Energy 
     1      -686.07265381
     2      -686.06366726
     3      -685.98696957

 Number of blocks in overlap matrix:     8   Smallest eigenvalue:  0.15D-02
 Number of N-2 electron functions:     128
 Number of N-1 electron functions:    3692

 Number of internal configurations:                  384
 Number of singly external configurations:        224728
 Number of doubly external configurations:        972960
 Total number of contracted configurations:      1198072
 Total number of uncontracted configurations:   48879436

 Diagonal Coupling coefficients finished.               Storage:  295058 words, CPU-Time:      0.05 seconds.
 Energy denominators for pairs finished in 1 passes.    Storage:  451592 words, CPU-time:      0.01 seconds.

  ITER. STATE  ROOT     SQ.NORM     CORR.ENERGY   TOTAL ENERGY   ENERGY CHANGE       DEN1      VAR(S)    VAR(P)      TIME
    1     1     1     1.00000000     0.00000000  -686.07265381     0.00000000    -0.26881562  0.60D-01  0.66D-01     0.16
    1     2     2     1.00000000     0.00000000  -686.06366726     0.00000000    -0.26448893  0.55D-01  0.67D-01     0.16
    2     1     1     1.11001322    -0.25120693  -686.32386074    -0.25120693    -0.00641639  0.16D-02  0.13D-02     7.11
    2     2     2     1.10763692    -0.24871483  -686.31238209    -0.24871483    -0.00608825  0.15D-02  0.12D-02     7.11
    3     1     1     1.11620046    -0.25839651  -686.33105032    -0.00718958    -0.00040304  0.90D-04  0.91D-04    14.05
    3     2     2     1.11326899    -0.25556516  -686.31923242    -0.00685033    -0.00039508  0.85D-04  0.91D-04    14.05
    4     1     1     1.11938174    -0.25888565  -686.33153946    -0.00048914    -0.00003713  0.93D-05  0.76D-05    21.04
    4     2     2     1.11594751    -0.25603645  -686.31970371    -0.00047129    -0.00003668  0.80D-05  0.79D-05    21.04
    5     1     1     1.12004990    -0.25893199  -686.33158580    -0.00004634    -0.00000419  0.14D-05  0.71D-06    28.18
    5     2     2     1.11644112    -0.25608091  -686.31974817    -0.00004446    -0.00000383  0.11D-05  0.70D-06    28.18
    6     1     1     1.12012065    -0.25893690  -686.33159070    -0.00000491    -0.00000051  0.18D-06  0.81D-07    35.33
    6     2     2     1.11645913    -0.25608525  -686.31975251    -0.00000434    -0.00000041  0.13D-06  0.75D-07    35.33
    7     1     1     1.12017152    -0.25893750  -686.33159131    -0.00000060    -0.00000008  0.32D-07  0.11D-07    42.46
    7     2     2     1.11648424    -0.25608573  -686.31975299    -0.00000048    -0.00000006  0.22D-07  0.97D-08    42.46
    8     1     1     1.12019410    -0.25893759  -686.33159140    -0.00000009    -0.00000001  0.55D-08  0.18D-08    49.46
    8     2     2     1.11649758    -0.25608580  -686.31975306    -0.00000007    -0.00000001  0.35D-08  0.14D-08    49.46


 =====================================
 Analysis of CPU times by interactions
 =====================================

       I      S      P

 I   0.2%
 S   0.1%   3.1%
 P   0.6%  12.3%  42.2%

 Initialization:   0.2%
 Other:           41.3%

 Total CPU:       49.5 seconds
 =====================================



 gnormi=  0.89270243  gnorms=  0.04627291  gnormp=  0.06102465  gnorm=  1.00000000
 ecorri= -0.23115422  ecorrs= -0.01198155  ecorrp= -0.01580182  ecorr= -0.25893759

 gnormi=  0.89565801  gnorms=  0.04118264  gnormp=  0.06315934  gnorm=  1.00000000
 ecorri= -0.22936529  ecorrs= -0.01054551  ecorrp= -0.01617499  ecorr= -0.25608580

 Wavefunction saved on  7340.2

 Reference coefficients greater than 0.0500000
 =============================================
 22202//0          -0.6608553   0.6473533
 2220/02/           0.6608553   0.6473533
 22002/2/           0.0000002   0.1491922
 2/\02/2/           0.0000000  -0.0845331
 2200/22/          -0.0606910  -0.0681355
 22002//2           0.0606909  -0.0681354

 Coefficients of fixed reference functions:
 ==========================================

 State      Coefficients
 1           0.944508    0.000000
 2           0.000000    0.946012

 Coefficients of rotated reference functions:
 ============================================

 State      Coefficients
 1           0.944508    0.000000
 2           0.000000    0.946012


 RESULTS FOR STATE 1.4
 =====================

 Coefficient of reference function:   C(0) = 0.94450797 (fixed)   0.94482932 (relaxed)   0.94450797 (rotated)

 Energy contributions of configuration classes

 CLASS          SQ.NORM        ECORR1        ECORR2
 +++++++++++++++++++++++++++++++++++++++++++++++++++
 Internals    0.00068056    0.00000000   -0.16710014
 Singles      0.05186992   -0.07180185   -0.07603564
 Pairs        0.06840598    0.00000001   -0.01580181
 Total        1.12095646   -0.07180184   -0.25893759
 +++++++++++++++++++++++++++++++++++++++++++++++++++


 Reference energy                    -686.07265381
 Nuclear energy                        79.02379683
 Kinetic energy                       688.98897561
 One electron energy                -1106.94424236
 Two electron energy                  341.58885413
 Virial quotient                       -0.99614307
 Correlation energy                    -0.25893759
 !MRCI STATE 1.4 Energy              -686.331591398346

 Properties without orbital relaxation:

 !MRCI STATE 1.4 Dipole moment          0.00000000     0.00000000     0.96798994
 Dipole moment /Debye                   0.00000000     0.00000000     2.46038501

 Cluster corrected energies          -686.36291157 (Davidson, fixed reference)
 Cluster corrected energies          -686.36271417 (Davidson, relaxed reference)
 Cluster corrected energies          -686.36291157 (Davidson, rotated reference)

 Cluster corrected energies          -686.35651640 (Pople, fixed reference)
 Cluster corrected energies          -686.35635028 (Pople, relaxed reference)
 Cluster corrected energies          -686.35651640 (Pople, rotated reference)







 RESULTS FOR STATE 2.4
 =====================

 Coefficient of reference function:   C(0) = 0.94601177 (fixed)   0.94639210 (relaxed)   0.94601177 (rotated)

 Energy contributions of configuration classes

 CLASS          SQ.NORM        ECORR1        ECORR2
 +++++++++++++++++++++++++++++++++++++++++++++++++++
 Internals    0.00080423   -0.00000000   -0.00018431
 Singles      0.04601730   -0.06499663   -0.06871348
 Pairs        0.07057397   -0.19108917   -0.18718800
 Total        1.11739550   -0.25608580   -0.25608580
 +++++++++++++++++++++++++++++++++++++++++++++++++++


 Reference energy                    -686.06366726
 Nuclear energy                        79.02379683
 Kinetic energy                       688.97096544
 One electron energy                -1106.90764375
 Two electron energy                  341.56409387
 Virial quotient                       -0.99615192
 Correlation energy                    -0.25608580
 !MRCI STATE 2.4 Energy              -686.319753055917

 Properties without orbital relaxation:

 !MRCI STATE 2.4 Dipole moment          0.00000000     0.00000000     0.92503059
 Dipole moment /Debye                   0.00000000     0.00000000     2.35119324

 Cluster corrected energies          -686.34981638 (Davidson, fixed reference)
 Cluster corrected energies          -686.34958643 (Davidson, relaxed reference)
 Cluster corrected energies          -686.34981638 (Davidson, rotated reference)

 Cluster corrected energies          -686.34363711 (Pople, fixed reference)
 Cluster corrected energies          -686.34344424 (Pople, relaxed reference)
 Cluster corrected energies          -686.34363711 (Pople, rotated reference)






 !MRCI trans          <2.4|DMZ|1.4>     0.000000354571 au =     0.000000901230 Debye


 **********************************************************************************************************************************
 DATASETS  * FILE   NREC   LENGTH (MB)   RECORD NAMES
              1      21      585.24       500      700      610      701      900      950      970     1000      129      960   
                                          VAR     GEOM    BASINP    GEOM    SYMINP    ZMAT    AOBASIS   BASIS     P2S    ABASIS    
                                         1100     1400     1410     1200     1210     1080     1600     1650     1300     1700   
                                           S        T        V       H0       H01     AOSYM     SMH    MOLCAS    ERIS     OPER   
                                         1380   
                                         JKOP   

              2      11       82.00       500      610      700     1000      520     2100     2140      701     2140(1)  8340   
                                          VAR    BASINP    GEOM     BASIS   MCVARS     RHF     MCSCF    GEOM     MCSCF    MRCI   
                                         7340   
                                         MRCI   

 PROGRAMS   *        TOTAL        CI        CI     MULTI       INT   RESTART
 CPU TIMES  *       221.48     49.70    129.10      5.46     37.09      0.01
 REAL TIME  *       229.97 SEC
 DISK USED  *         1.81 GB
 **********************************************************************************************************************************


 PROGRAM * CI (Multireference internally contracted CI)     Authors: H.-J. Werner, P.J. Knowles, 1987


 Ket wavefunction restored from record 8340.2 to file 8
 Bra wavefunction restored from record 7340.2 to file 7
 !MRCI trans           <1.4|LZ|1.1>     0.000000013327i
 !MRCI trans           <1.4|LZ|3.1>     1.999472869441i
 !MRCI trans           <2.4|LZ|1.1>     0.000005267052i
 !MRCI trans           <2.4|LZ|2.1>    -0.000006821515i
 !MRCI trans           <2.4|LZ|3.1>     0.000000021579i


 **********************************************************************************************************************************
 DATASETS  * FILE   NREC   LENGTH (MB)   RECORD NAMES
              1      21      585.24       500      700      610      701      900      950      970     1000      129      960   
                                          VAR     GEOM    BASINP    GEOM    SYMINP    ZMAT    AOBASIS   BASIS     P2S    ABASIS    
                                         1100     1400     1410     1200     1210     1080     1600     1650     1300     1700   
                                           S        T        V       H0       H01     AOSYM     SMH    MOLCAS    ERIS     OPER   
                                         1380   
                                         JKOP   

              2      11       82.00       500      610      700     1000      520     2100     2140      701     2140(1)  8340   
                                          VAR    BASINP    GEOM     BASIS   MCVARS     RHF     MCSCF    GEOM     MCSCF    MRCI   
                                         7340   
                                         MRCI   

 PROGRAMS   *        TOTAL        CI        CI        CI     MULTI       INT   RESTART
 CPU TIMES  *       222.46      0.97     49.70    129.10      5.46     37.09      0.01
 REAL TIME  *       231.11 SEC
 DISK USED  *         1.81 GB
 **********************************************************************************************************************************

              CI              CI           MULTI
   -686.31975306   -686.33175549   -685.98696957
 **********************************************************************************************************************************
 Molpro calculation terminated
