
 Working directory              : /tmp/molpro/molpro.TvRZua5zkr/
 Global scratch directory       : /tmp/molpro/molpro.TvRZua5zkr/
 Wavefunction directory         : /home/molpro/wfu/
 Main file repository           : /tmp/molpro/molpro.TvRZua5zkr/

 id        : gskim

 Nodes                nprocs
 localhost.localdomain    1
 GA implementation: MPI file
 GA implementation (serial work in mppx): MPI file

 Using customized tuning parameters: mindgm=1; mindgv=20; mindgc=4; mindgr=1; noblas=0; minvec=7
 default implementation of scratch files=df  


 Variables initialized (1009), CPU time= 0.01 sec
 ***,spin orbital  Calculations   for SiS from 1sig- to 3sig-
 file,2,sis3sigm-1sigm-lsx.wfu
 memory,1500,M
 geometry={angstrom;
 Si
 S,Si,r(i)}
 basis=av5z
 r=[1.12,1.125,1.13,1.135,1.14,1.145,1.15,1.155,1.16,1.65,1.17,1.175,1.18,1.185,1.19,1.195,1.20,1.205,1.21,1.215,1.22,1.225,1.23,1.235,1.24,1.245,1.25,1.255,1.26,1.265,1.27,1.275,1.28,1.285,1.29,1.295,1.30,1.31,1.32,1.33,1.34,1.35,1.36,1.37,1.38,1.39,1.40,1.41,1.42,1.43,1.44,1.45,1.46,1.47,1.48,1.49,1.50,1.51,1.52,1.53,1.54,1.55,1.56,1.57,1.58,1.59,1.60,1.61,1.62,1.63,1.64,1.65,1.66,1.67,1.68,1.69,1.70,1.71,1.72,1.73,1.74,1.75,1.76,1.77,1.80,1.81,1.82,1.83,1.84,1.85,1.86,1.87,1.88,1.89,1.90,1.91,1.92,1.93,1.94,1.95,1.957,1.96,1.97,1.98,1.99,2.00,2.01,2.02,2.03,2.04,2.05,2.06,2.07,2.08,2.09,2.10,2.11,2.112,2.12,2.13,2.14,2.15,2.16,2.17,2.18,2.19,2.20,2.21,2.22,2.23,2.24,2.25,2.26,2.27,2.28,2.29,2.30,2.32,2.34,2.36,2.38,2.4,2.42,2.44,2.46,2.48,2.5,2.52,2.54,2.56,2.58,2.6,2.62,2.64,2.66,2.68,2.7,2.72,2.74,2.76,2.78,2.8,2.82,2.84,2.86,2.88,2.90,2.92,2.94,2.96,2.98,3.00,3.02,3.04,3.06,3.08,3.10,3.12,3.14,3.16,3.18,3.20,3.22,3.24,3.26,3.28,3.30,3.35,3.4,3.45,3.5]
 do i=1,#r
 int;
 
 Text,EAM calculation of SiS  1sig- to 3sig-  using  av5z
 
 {multi;occ,10,4,4;close,6,2,2;start,2140.2;orbital,2140.2;natorb,,ci;wf,30,4,2;state,3;wf,30,4,0;state,3;maxiter,40;}
 
 {ci;occ,10,4,4;core,6,2,2;wf,30,4,2;state,2;orbital,2140.2;maxiter,250;option,maxiti=250;option,nstati=3;save,8620.2;}
 
 {ci;occ,10,4,4;core,6,2,2;wf,30,4,0;state,2;orbital,2140.2;maxiter,250;option,maxiti=250;option,nstati=3;save,7620.2;}
 
 {ci;hlsmat,ls,7620.2,8620.2;options,matel=1;PRINT}
 
 enddo
 
 Commands initialized (810), CPU time= 0.00 sec, 661 directives.
 Default parameters read. Elapsed time= 0.05 sec

 Checking input...
 Passed
1


                                         ***  PROGRAM SYSTEM MOLPRO  ***
                                       Copyright, TTI GmbH Stuttgart, 2015
                                    Version 2021.2 linked Jul 16 2021 07:37:36


 **********************************************************************************************************************************
 LABEL *   spin orbital  Calculations   for SiS from 1sig- to 3sig-                      
  64 bit serial version                                                                  DATE: 15-Oct-24          TIME: 16:51:34  
 **********************************************************************************************************************************

 SHA1:             dade016a989826d9d859d6207854b99675d53db3
 **********************************************************************************************************************************

 Memory per process:      1500 MW
 Total memory per node:   1500 MW

 GA preallocation disabled
 GA check disabled

 Variable memory set to 1500.0 MW



 Permanent file  2  sis3sigm-1sigm-lsx.wfu           assigned.  Implementation=df    Size= 17.78 MB


 PROGRAM * RESTART 


 Reading variables from file 2

 _FNUC           =      0.00000000
 _BASIS          =    AV5Z
 _NELEC          =     30.00000000
 _PROGRAM        =    CI
 _DMX(2)         =      0.00000000
 _DMY(2)         =      0.00000000
 _DMZ(1:2)       =      0.85460054     1.36936992
 _DMX_SCF        =      0.00000000
 _DMY_SCF        =      0.00000000
 _DMZ_SCF        =      1.47643878
 _HOMO           =      4.20000000
 _EHOMO          =     -0.16531371
 _LUMO           =     10.10000000
 _ELUMO          =      0.02263953
 _ENERGD(1:2)    =   -685.00524273  -684.89677857
 _ENERGD0(1:2)   =   -685.00524273  -684.89677857
 _ENERGD1(1:2)   =   -685.00636063  -684.89700356
 _ENERGD2(1:2)   =   -685.00636063  -684.89700356
 _ENERGD3(1:2)   =   -685.00524273  -684.89677857
 _ENERGD4(1:2)   =   -685.00636063  -684.89700356
 _ENERGP(1:2)    =   -684.99948551  -684.88915803
 _ENERGP0(1:2)   =   -684.99948551  -684.88915803
 _ENERGP1(1:2)   =   -685.00041806  -684.88935242
 _ENERGP2(1:2)   =   -685.00041806  -684.88935242
 _ENERGP3(1:2)   =   -684.99948551  -684.88915803
 _ENERGP4(1:2)   =   -685.00041806  -684.88935242
 _ENERGR(1:2)    =   -684.72412237  -684.59403745
 _ENERGRR(1:2)   =   -684.72412237  -684.59403745
 _ENERGY(1:2)    =   -684.97767518  -684.85734138
 _ENERGY_METHOD  =    CI
 _ENERGY_BASIS   =    aug-cc-pV5Z
 _ENERGY_AVRG    =   -684.63403287
 _ENUC           =    105.83544218
 _IPROC_MPP      =      0.00000000
 _IPROC_MPPX     =      0.00000000
 _ORBITAL        =   2140.20000000
 _ROOT(1:2)      =      1.00000000     2.00000000
 _STATUS         =      1.00000000
 _TROV           =     -0.00000000
 _DATE           =    13-Oct-24
 _LASTORB        =    MCSCF
 _OUTPUT         =    /home/molpro/SiS-3oct2024/dir-5/sis112-3sigm2mc.out
 _PGROUP         =    C2v 
 _TIME           =    21:14:40
 _C0(1:2)        =      0.90193684     0.86973296
 _C0R(1:2)       =      0.89836443     0.86908707
 _DMX_CC(1:3)    =     -0.00000000    -0.00000000    -0.00000000
 _DMY_CC(1:3)    =     -0.00000000    -0.00000000    -0.00000000
 _DMZ_CC(1:3)    =      1.33971912     1.33971912     1.33971912
 _DMX_NUC(1:3)   =      0.00000000     0.00000000     0.00000000
 _DMY_NUC(1:3)   =      0.00000000     0.00000000     0.00000000
 _DMZ_NUC(1:3)   =      0.01858008     0.01858008     0.01858008
 _SYM_CATION     =      3.00000000
 R               =      1.12000000
 _TRDMX          =      0.00000000
 _TRDMY          =      0.00000000
 _TRDMZ          =      0.00000023

 Geometry written to block  1 of record 700


 **********************************************************************************************************************************
 DATASETS  * FILE   NREC   LENGTH (MB)   RECORD NAMES
              2       7       17.78       500      610      700     1000      520     2100     2140   
                                          VAR    BASINP    GEOM     BASIS   MCVARS     RHF     MCSCF   

 PROGRAMS   *        TOTAL   RESTART
 CPU TIMES  *         0.10      0.01
 REAL TIME  *         0.12 SEC
 DISK USED  *        29.25 MB
 **********************************************************************************************************************************
 SETTING BASIS          =    AV5Z
 SETTING R(1)           =         1.12000000                                  
 SETTING R(2)           =         1.12500000                                  
 SETTING R(3)           =         1.13000000                                  
 SETTING R(4)           =         1.13500000                                  
 SETTING R(5)           =         1.14000000                                  
 SETTING R(6)           =         1.14500000                                  
 SETTING R(7)           =         1.15000000                                  
 SETTING R(8)           =         1.15500000                                  
 SETTING R(9)           =         1.16000000                                  
 SETTING R(10)          =         1.65000000                                  
 SETTING R(11)          =         1.17000000                                  
 SETTING R(12)          =         1.17500000                                  
 SETTING R(13)          =         1.18000000                                  
 SETTING R(14)          =         1.18500000                                  
 SETTING R(15)          =         1.19000000                                  
 SETTING R(16)          =         1.19500000                                  
 SETTING R(17)          =         1.20000000                                  
 SETTING R(18)          =         1.20500000                                  
 SETTING R(19)          =         1.21000000                                  
 SETTING R(20)          =         1.21500000                                  
 SETTING R(21)          =         1.22000000                                  
 SETTING R(22)          =         1.22500000                                  
 SETTING R(23)          =         1.23000000                                  
 SETTING R(24)          =         1.23500000                                  
 SETTING R(25)          =         1.24000000                                  
 SETTING R(26)          =         1.24500000                                  
 SETTING R(27)          =         1.25000000                                  
 SETTING R(28)          =         1.25500000                                  
 SETTING R(29)          =         1.26000000                                  
 SETTING R(30)          =         1.26500000                                  
 SETTING R(31)          =         1.27000000                                  
 SETTING R(32)          =         1.27500000                                  
 SETTING R(33)          =         1.28000000                                  
 SETTING R(34)          =         1.28500000                                  
 SETTING R(35)          =         1.29000000                                  
 SETTING R(36)          =         1.29500000                                  
 SETTING R(37)          =         1.30000000                                  
 SETTING R(38)          =         1.31000000                                  
 SETTING R(39)          =         1.32000000                                  
 SETTING R(40)          =         1.33000000                                  
 SETTING R(41)          =         1.34000000                                  
 SETTING R(42)          =         1.35000000                                  
 SETTING R(43)          =         1.36000000                                  
 SETTING R(44)          =         1.37000000                                  
 SETTING R(45)          =         1.38000000                                  
 SETTING R(46)          =         1.39000000                                  
 SETTING R(47)          =         1.40000000                                  
 SETTING R(48)          =         1.41000000                                  
 SETTING R(49)          =         1.42000000                                  
 SETTING R(50)          =         1.43000000                                  
 SETTING R(51)          =         1.44000000                                  
 SETTING R(52)          =         1.45000000                                  
 SETTING R(53)          =         1.46000000                                  
 SETTING R(54)          =         1.47000000                                  
 SETTING R(55)          =         1.48000000                                  
 SETTING R(56)          =         1.49000000                                  
 SETTING R(57)          =         1.50000000                                  
 SETTING R(58)          =         1.51000000                                  
 SETTING R(59)          =         1.52000000                                  
 SETTING R(60)          =         1.53000000                                  
 SETTING R(61)          =         1.54000000                                  
 SETTING R(62)          =         1.55000000                                  
 SETTING R(63)          =         1.56000000                                  
 SETTING R(64)          =         1.57000000                                  
 SETTING R(65)          =         1.58000000                                  
 SETTING R(66)          =         1.59000000                                  
 SETTING R(67)          =         1.60000000                                  
 SETTING R(68)          =         1.61000000                                  
 SETTING R(69)          =         1.62000000                                  
 SETTING R(70)          =         1.63000000                                  
 SETTING R(71)          =         1.64000000                                  
 SETTING R(72)          =         1.65000000                                  
 SETTING R(73)          =         1.66000000                                  
 SETTING R(74)          =         1.67000000                                  
 SETTING R(75)          =         1.68000000                                  
 SETTING R(76)          =         1.69000000                                  
 SETTING R(77)          =         1.70000000                                  
 SETTING R(78)          =         1.71000000                                  
 SETTING R(79)          =         1.72000000                                  
 SETTING R(80)          =         1.73000000                                  
 SETTING R(81)          =         1.74000000                                  
 SETTING R(82)          =         1.75000000                                  
 SETTING R(83)          =         1.76000000                                  
 SETTING R(84)          =         1.77000000                                  
 SETTING R(85)          =         1.80000000                                  
 SETTING R(86)          =         1.81000000                                  
 SETTING R(87)          =         1.82000000                                  
 SETTING R(88)          =         1.83000000                                  
 SETTING R(89)          =         1.84000000                                  
 SETTING R(90)          =         1.85000000                                  
 SETTING R(91)          =         1.86000000                                  
 SETTING R(92)          =         1.87000000                                  
 SETTING R(93)          =         1.88000000                                  
 SETTING R(94)          =         1.89000000                                  
 SETTING R(95)          =         1.90000000                                  
 SETTING R(96)          =         1.91000000                                  
 SETTING R(97)          =         1.92000000                                  
 SETTING R(98)          =         1.93000000                                  
 SETTING R(99)          =         1.94000000                                  
 SETTING R(100)         =         1.95000000                                  
 SETTING R(101)         =         1.95700000                                  
 SETTING R(102)         =         1.96000000                                  
 SETTING R(103)         =         1.97000000                                  
 SETTING R(104)         =         1.98000000                                  
 SETTING R(105)         =         1.99000000                                  
 SETTING R(106)         =         2.00000000                                  
 SETTING R(107)         =         2.01000000                                  
 SETTING R(108)         =         2.02000000                                  
 SETTING R(109)         =         2.03000000                                  
 SETTING R(110)         =         2.04000000                                  
 SETTING R(111)         =         2.05000000                                  
 SETTING R(112)         =         2.06000000                                  
 SETTING R(113)         =         2.07000000                                  
 SETTING R(114)         =         2.08000000                                  
 SETTING R(115)         =         2.09000000                                  
 SETTING R(116)         =         2.10000000                                  
 SETTING R(117)         =         2.11000000                                  
 SETTING R(118)         =         2.11200000                                  
 SETTING R(119)         =         2.12000000                                  
 SETTING R(120)         =         2.13000000                                  
 SETTING R(121)         =         2.14000000                                  
 SETTING R(122)         =         2.15000000                                  
 SETTING R(123)         =         2.16000000                                  
 SETTING R(124)         =         2.17000000                                  
 SETTING R(125)         =         2.18000000                                  
 SETTING R(126)         =         2.19000000                                  
 SETTING R(127)         =         2.20000000                                  
 SETTING R(128)         =         2.21000000                                  
 SETTING R(129)         =         2.22000000                                  
 SETTING R(130)         =         2.23000000                                  
 SETTING R(131)         =         2.24000000                                  
 SETTING R(132)         =         2.25000000                                  
 SETTING R(133)         =         2.26000000                                  
 SETTING R(134)         =         2.27000000                                  
 SETTING R(135)         =         2.28000000                                  
 SETTING R(136)         =         2.29000000                                  
 SETTING R(137)         =         2.30000000                                  
 SETTING R(138)         =         2.32000000                                  
 SETTING R(139)         =         2.34000000                                  
 SETTING R(140)         =         2.36000000                                  
 SETTING R(141)         =         2.38000000                                  
 SETTING R(142)         =         2.40000000                                  
 SETTING R(143)         =         2.42000000                                  
 SETTING R(144)         =         2.44000000                                  
 SETTING R(145)         =         2.46000000                                  
 SETTING R(146)         =         2.48000000                                  
 SETTING R(147)         =         2.50000000                                  
 SETTING R(148)         =         2.52000000                                  
 SETTING R(149)         =         2.54000000                                  
 SETTING R(150)         =         2.56000000                                  
 SETTING R(151)         =         2.58000000                                  
 SETTING R(152)         =         2.60000000                                  
 SETTING R(153)         =         2.62000000                                  
 SETTING R(154)         =         2.64000000                                  
 SETTING R(155)         =         2.66000000                                  
 SETTING R(156)         =         2.68000000                                  
 SETTING R(157)         =         2.70000000                                  
 SETTING R(158)         =         2.72000000                                  
 SETTING R(159)         =         2.74000000                                  
 SETTING R(160)         =         2.76000000                                  
 SETTING R(161)         =         2.78000000                                  
 SETTING R(162)         =         2.80000000                                  
 SETTING R(163)         =         2.82000000                                  
 SETTING R(164)         =         2.84000000                                  
 SETTING R(165)         =         2.86000000                                  
 SETTING R(166)         =         2.88000000                                  
 SETTING R(167)         =         2.90000000                                  
 SETTING R(168)         =         2.92000000                                  
 SETTING R(169)         =         2.94000000                                  
 SETTING R(170)         =         2.96000000                                  
 SETTING R(171)         =         2.98000000                                  
 SETTING R(172)         =         3.00000000                                  
 SETTING R(173)         =         3.02000000                                  
 SETTING R(174)         =         3.04000000                                  
 SETTING R(175)         =         3.06000000                                  
 SETTING R(176)         =         3.08000000                                  
 SETTING R(177)         =         3.10000000                                  
 SETTING R(178)         =         3.12000000                                  
 SETTING R(179)         =         3.14000000                                  
 SETTING R(180)         =         3.16000000                                  
 SETTING R(181)         =         3.18000000                                  
 SETTING R(182)         =         3.20000000                                  
 SETTING R(183)         =         3.22000000                                  
 SETTING R(184)         =         3.24000000                                  
 SETTING R(185)         =         3.26000000                                  
 SETTING R(186)         =         3.28000000                                  
 SETTING R(187)         =         3.30000000                                  
 SETTING R(188)         =         3.35000000                                  
 SETTING R(189)         =         3.40000000                                  
 SETTING R(190)         =         3.45000000                                  
 SETTING R(191)         =         3.50000000                                  

 DO I                   =         1.00000000   


 Using spherical harmonics

 Library entry SI     S aug-cc-pV5Z          selected for orbital group  1
 Library entry SI     P aug-cc-pV5Z          selected for orbital group  1
 Library entry SI     D aug-cc-pV5Z          selected for orbital group  1
 Library entry SI     F aug-cc-pV5Z          selected for orbital group  1
 Library entry SI     G aug-cc-pV5Z          selected for orbital group  1
 Library entry SI     H aug-cc-pV5Z          selected for orbital group  1
 Library entry S      S aug-cc-pV5Z          selected for orbital group  2
 Library entry S      P aug-cc-pV5Z          selected for orbital group  2
 Library entry S      D aug-cc-pV5Z          selected for orbital group  2
 Library entry S      F aug-cc-pV5Z          selected for orbital group  2
 Library entry S      G aug-cc-pV5Z          selected for orbital group  2
 Library entry S      H aug-cc-pV5Z          selected for orbital group  2


 PROGRAM * SEWARD (Integral evaluation for generally contracted gaussian basis sets)     Author: Roland Lindh, 1990

 Geometry written to block  1 of record 701

 Orientation using atomic masses  
 Molecule type: Linear
 Symmetry elements: X,Y
 Rotational constants:      26.9115434     26.9115434      0.0000000 GHz  (calculated with average atomic masses)

 Point group  C2v 



 ATOMIC COORDINATES

 NR  ATOM    CHARGE       X              Y              Z

   1  SI     14.00    0.000000000    0.000000000   -1.128177069
   2  S      16.00    0.000000000    0.000000000    0.988316191

 Bond lengths in Bohr (Angstrom)

 1-2  2.116493260
     ( 1.120000000)

 NUCLEAR CHARGE:                   30
 NUMBER OF PRIMITIVE AOS:         434
 NUMBER OF SYMMETRY AOS:          324
 NUMBER OF CONTRACTIONS:          262   (   96A1  +   64B1  +   64B2  +   38A2  )
 NUMBER OF INNER CORE ORBITALS:     2   (    2A1  +    0B1  +    0B2  +    0A2  )
 NUMBER OF OUTER CORE ORBITALS:     8   (    4A1  +    2B1  +    2B2  +    0A2  )
 NUMBER OF VALENCE ORBITALS:        8   (    4A1  +    2B1  +    2B2  +    0A2  )


 NUCLEAR REPULSION ENERGY  105.83544218

 EXTRA SYMMETRY OF AOS IN SYMMETRY 1:   1 1 1 1 1 1 1 1 1 1   1 1 1 1 1 1 2 1 2 1   2 1 2 1 2 1 2 1 2 1   2 1 2 1 3 2 1 3 2 1
                                        3 2 2 3 1 2 3 1 1 1   1 1 1 1 1 1 1 1 1 1   1 1 1 1 2 1 2 1 2 1   2 1 2 1 2 1 2 1 2 1
                                        2 1 3 2 1 3 2 1 3 2   2 3 1 2 3 1
 EXTRA SYMMETRY OF AOS IN SYMMETRY 2:   1 1 1 1 1 1 1 1 1 1   1 1 1 2 1 2 1 2 1 2   1 2 1 2 1 2 1 2 3 1   2 3 1 1 1 1 1 1 1 1
                                        1 1 1 1 1 2 1 2 1 2   1 2 1 2 1 2 1 2 1 2   3 1 2 3
 EXTRA SYMMETRY OF AOS IN SYMMETRY 3:   1 1 1 1 1 1 1 1 1 1   1 1 1 2 1 2 1 2 1 2   1 2 1 2 1 2 1 2 3 1   2 3 1 1 1 1 1 1 1 1
                                        1 1 1 1 1 2 1 2 1 2   1 2 1 2 1 2 1 2 1 2   3 1 2 3
 EXTRA SYMMETRY OF AOS IN SYMMETRY 4:   1 1 1 1 1 1 1 1 1 1   2 1 2 1 2 2 1 2 1 1   1 1 1 1 1 1 1 1 1 2   1 2 1 2 2 1 2 1

 Eigenvalues of metric

         1 0.360E-05 0.406E-05 0.648E-05 0.112E-04 0.140E-04 0.375E-04 0.527E-04 0.132E-03
         2 0.675E-05 0.717E-05 0.592E-04 0.192E-03 0.416E-03 0.810E-03 0.216E-02 0.265E-02
         3 0.675E-05 0.717E-05 0.592E-04 0.192E-03 0.416E-03 0.810E-03 0.216E-02 0.265E-02
         4 0.231E-03 0.179E-02 0.377E-02 0.785E-02 0.128E-01 0.361E-01 0.467E-01 0.588E-01


 Contracted 2-electron integrals neglected if value below      1.0D-12
 AO integral compression algorithm  1   Integral accuracy      1.0D-12

     687.604 MB (compressed) written to integral file ( 47.4%)


 NUMBER OF SORTED TWO-ELECTRON INTEGRALS:  150955559.     BUFFER LENGTH:  32768
 NUMBER OF SEGMENTS:  10  SEGMENT LENGTH:   15998976      RECORD LENGTH: 524288

 Memory used in sort:      16.56 MW

 SORT1 READ   181316810. AND WROTE   100604353. INTEGRALS IN    293 RECORDS. CPU TIME:     2.09 SEC, REAL TIME:     2.62 SEC
 SORT2 READ   100604353. AND WROTE   150955559. INTEGRALS IN   2623 RECORDS. CPU TIME:     1.60 SEC, REAL TIME:     1.91 SEC

 FILE SIZES:   FILE 1:   719.3 MBYTE,  FILE 4:  1229.0 MBYTE,   TOTAL:   1948.3 MBYTE

 OPERATOR DM      FOR CENTER  0  COORDINATES:    0.000000    0.000000    0.000000


 **********************************************************************************************************************************
 DATASETS  * FILE   NREC   LENGTH (MB)   RECORD NAMES
              1      20      568.43       500      700      610      701      900      950      970     1000      129      960   
                                          VAR     GEOM    BASINP    GEOM    SYMINP    ZMAT    AOBASIS   BASIS     P2S    ABASIS    
                                         1100     1400     1410     1200     1210     1080     1600     1650     1300     1700   
                                           S        T        V       H0       H01     AOSYM     SMH    MOLCAS    ERIS     OPER   

              2       8       18.31       500      610      700     1000      520     2100     2140      701   
                                          VAR    BASINP    GEOM     BASIS   MCVARS     RHF     MCSCF    GEOM   

 PROGRAMS   *        TOTAL       INT   RESTART
 CPU TIMES  *        37.32     37.22      0.01
 REAL TIME  *        38.75 SEC
 DISK USED  *         1.83 GB
 **********************************************************************************************************************************

 PROGRAM * MULTI (Direct Multiconfiguration SCF)       Authors: P.J. Knowles, H.-J. Werner (1984)
                                                                D.A. Kreplin, P.J. Knowles, H.-J. Werner (2019)

 Number of closed-shell orbitals:  10 (   6   2   2   0 )
 Number of active  orbitals:        8 (   4   2   2   0 )
 Number of external orbitals:     244 (  86  60  60  38 )

 State symmetry 1

 Number of active electrons:  10    Spin symmetry=Triplet   Space symmetry=4
 Number of states:             3
 Number of CSFs:             384   (504 determinants, 1960 intermediate states)

 State symmetry 2

 Number of active electrons:  10    Spin symmetry=Singlet   Space symmetry=4
 Number of states:             3
 Number of CSFs:             272   (776 determinants, 3136 intermediate states)

 Molecular orbitals read from record     2140.2  Type=MCSCF/NATURAL (state averaged)

 EXTRA SYMMETRY OF MOS IN SYMMETRY 1:   1 1 1 1 1 1 1 1 1 1   1 1 1 2 1 1 2 1 1 2   1 1 2 1 1 2 1 2 3 1   2 1 2 1 1 2 1 3 1 2
                                        1 2 1 2 1 1 3 2 1 2   3 1 1 1 2 2 3 1 2 1   2 1 3 1 2 1 1 2 3 2   3 1 1 2 1 2 1 2 1 3
                                        1 1 3 2 2 1 1 2 1 1   2 1 1 1 1 1
 EXTRA SYMMETRY OF MOS IN SYMMETRY 2:   1 1 1 1 1 1 1 1 2 1   1 1 1 2 1 1 2 1 2 1   1 2 1 1 2 1 1 2 3 1   2 1 2 1 1 1 2 3 1 2
                                        1 2 1 2 1 3 1 1 2 1   2 1 2 1 3 1 2 1 2 1   1 1 1 1
 EXTRA SYMMETRY OF MOS IN SYMMETRY 3:   1 1 1 1 1 1 1 1 2 1   1 1 1 2 1 1 2 1 2 1   1 2 1 1 2 1 1 2 3 1   2 1 2 1 1 1 2 3 1 2
                                        1 2 1 2 1 3 1 1 2 1   2 1 2 1 3 1 2 1 2 1   1 1 1 1
 EXTRA SYMMETRY OF MOS IN SYMMETRY 4:   1 1 1 1 1 1 2 1 1 1   2 1 1 1 2 1 1 2 1 1   2 1 1 2 1 1 2 1 2 1   1 1 2 2 1 1 1 1

 Wavefunction dump at record             2140.2

 Convergence thresholds  0.10E-04 (gradient)  0.10E-05 (energy)

 Weight factors for state symmetry  1:    0.16667   0.16667   0.16667
 Weight factors for state symmetry  2:    0.16667   0.16667   0.16667
 
 Number of orbital rotations:  1372  ( 32 closed/active, 756 closed/virtual, 0 active/active, 584 active/virtual )
 Total number of variables:    5212
 
  Second-order MCSCF: L-BFGS accelerated
 
 ITER  MIC  NCI  NEG     ENERGY(VAR)    ENERGY(PROJ) ENERGY CHANGE       GRAD(0)  GRAD(ORB)   GRAD(CI)      STEP      TIME
   1   14   36    0   -684.62315185    -684.62335725   -0.00020540    0.00784101 0.00003231 0.00007000  0.59E-01      1.64
   2   30   64    0   -684.62335775    -684.62335778   -0.00000003    0.00007447 0.00000001 0.00000009  0.31E-02      3.65
   3    5    6    0   -684.62335778    -684.62335778   -0.00000000    0.00000009 0.00000000 0.00000008  0.62E-06      5.09

 CONVERGENCE REACHED!  Final gradient:    0.00000005 ( 0.49E-07)
                       Final energy:   -684.62335778
 
 Results for state 1.4 Triplet
 =============================
 !MCSCF STATE 1.4 Triplet Energy              -684.723033783464
 Nuclear energy                                105.83544218
 Kinetic energy                                691.44045048
 One electron energy                         -1154.26368149
 Two electron energy                           363.70520552
 Virial ratio                                    1.99028489
 
 !MCSCF STATE 1.4 Triplet Dipole moment          0.00000000     0.00000000     0.98213276
 Dipole moment /Debye                            0.00000000     0.00000000     2.49633247
 
 Results for state 2.4 Triplet
 =============================
 !MCSCF STATE 2.4 Triplet Energy              -684.594257527942
 Nuclear energy                                105.83544218
 Kinetic energy                                692.49824539
 One electron energy                         -1153.90153389
 Two electron energy                           363.47183418
 Virial ratio                                    1.98858627
 
 !MCSCF STATE 2.4 Triplet Dipole moment          0.00000000     0.00000000     1.58595870
 Dipole moment /Debye                            0.00000000     0.00000000     4.03110494
 
 Results for state 3.4 Triplet
 =============================
 !MCSCF STATE 3.4 Triplet Energy              -684.584187281100
 Nuclear energy                                105.83544218
 Kinetic energy                                692.49441111
 One electron energy                         -1153.89380387
 Two electron energy                           363.47417441
 Virial ratio                                    1.98857720
 
 !MCSCF STATE 3.4 Triplet Dipole moment          0.00000000     0.00000000     1.58696050
 Dipole moment /Debye                            0.00000000     0.00000000     4.03365126
 
 Results for state 1.4 Singlet
 =============================
 !MCSCF STATE 1.4 Singlet Energy              -684.678277993598
 Nuclear energy                                105.83544218
 Kinetic energy                                691.41377089
 One electron energy                         -1154.26780753
 Two electron energy                           363.75408735
 Virial ratio                                    1.99025838
 
 !MCSCF STATE 1.4 Singlet Dipole moment          0.00000000     0.00000000     0.97306713
 Dipole moment /Debye                            0.00000000     0.00000000     2.47328996
 
 Results for state 2.4 Singlet
 =============================
 !MCSCF STATE 2.4 Singlet Energy              -684.581942121334
 Nuclear energy                                105.83544218
 Kinetic energy                                692.53037950
 One electron energy                         -1153.94497082
 Two electron energy                           363.52758652
 Virial ratio                                    1.98852262
 
 !MCSCF STATE 2.4 Singlet Dipole moment          0.00000000     0.00000000     1.55418597
 Dipole moment /Debye                            0.00000000     0.00000000     3.95034671
 
 Results for state 3.4 Singlet
 =============================
 !MCSCF STATE 3.4 Singlet Energy              -684.578447962224
 Nuclear energy                                105.83544218
 Kinetic energy                                692.51527741
 One electron energy                         -1153.91352240
 Two electron energy                           363.49963225
 Virial ratio                                    1.98853913
 
 !MCSCF STATE 3.4 Singlet Dipole moment          0.00000000     0.00000000     1.55617459
 Dipole moment /Debye                            0.00000000     0.00000000     3.95540127
 
 State-averaged charge density matrix saved on record 2140.2 (density set 1)
 
 Expectation values: (only non-zero values are shown)
 
 !MCSCF expec       <1.4 Triplet|DMZ|1.4 Triplet>     0.982132755127 au =     2.496332466553 Debye
 !MCSCF expec       <2.4 Triplet|DMZ|2.4 Triplet>     1.585958702897 au =     4.031104939721 Debye
 !MCSCF expec       <3.4 Triplet|DMZ|3.4 Triplet>     1.586960502312 au =     4.033651259849 Debye
 !MCSCF expec       <1.4 Singlet|DMZ|1.4 Singlet>     0.973067134012 au =     2.473289956057 Debye
 !MCSCF expec       <2.4 Singlet|DMZ|2.4 Singlet>     1.554185971753 au =     3.950346712392 Debye
 !MCSCF expec       <3.4 Singlet|DMZ|3.4 Singlet>     1.556174587112 au =     3.955401268466 Debye
 
 Transition values: (only non-zero values with the ground state are shown)
 
 !MCSCF trans       <1.4 Triplet|DMZ|3.4 Triplet>    -0.130599750844 au =    -0.331951456107 Debye
 

 EXTRA SYMMETRY OF MOS IN SYMMETRY 1:   1 1 1 1 1 1 1 1 1 1   1 1 1 2 1 1 2 1 1 2   1 1 2 1 1 2 1 2 3 1   2 1 2 1 1 1 2 3 1 2
                                        1 1 2 2 1 1 3 2 1 2   3 1 1 1 2 2 3 1 2 1   2 1 3 1 2 1 1 2 3 2   3 1 1 2 1 2 1 2 1 3
                                        1 1 3 2 2 1 1 2 1 1   2 1 1 1 1 1
 
 Natural orbital dump (state averaged) at molpro section 2140.2 (Orbital set 2)
 
 Reoptimze the CI vectors with natural orbitals 
 
 CI Coefficients of symmetry 4 (Triplet)
 =======================================
 
 2200 2a 2a      0.93790422     -0.00000000     -0.06363158
 2220 2a a0      0.03835078      0.68977716      0.68444963
 2220 a0 2a     -0.03835078      0.68977716     -0.68444963
 2020 2a 2a     -0.19266872      0.00000000      0.07788422
 2ba0 2a 2a     -0.14683230      0.00000000      0.06183034
 2ab0 2a 2a     -0.10444420     -0.00000000     -0.12943293
 2aa0 2a 2b      0.12563825      0.11060356      0.03380129
 2aa0 2b 2a      0.12563825     -0.11060356      0.03380129
 2200 a2 2a      0.02092685     -0.06555908      0.07630029
 2200 2a a2     -0.02092685     -0.06555908     -0.07630029
 ab20 2a 2a     -0.00021281      0.00000000      0.05059420
 
 Energy:      -684.72303378   -684.59425753   -684.58418728
 
 
 CI Coefficients of symmetry 4 (Singlet)
 =======================================
 
 2200 2b 2a     -0.68768848     -0.03577133      0.00000000
 2200 2a 2b      0.68768848      0.03577133     -0.00000000
 2220 b0 2a      0.02670371     -0.48763672      0.49029924
 2220 a0 2b     -0.02670371      0.48763672     -0.49029924
 2220 2b a0     -0.02670371      0.48763672      0.49029924
 2220 2a b0      0.02670371     -0.48763672     -0.49029924
 2020 2b 2a      0.12493653      0.05295476     -0.00000000
 2020 2a 2b     -0.12493653     -0.05295476      0.00000000
 2bb0 2a 2a      0.00000000      0.00000000      0.06182797
 2aa0 2b 2b     -0.00000000      0.00000000      0.06182797
 2ab0 2b 2a     -0.01381973     -0.05707881     -0.03091398
 2ba0 2a 2b     -0.01381973     -0.05707881     -0.03091398
 2ba0 2b 2a      0.01381973      0.05707881     -0.03091398
 2ab0 2a 2b      0.01381973      0.05707881     -0.03091398
 2200 2a b2     -0.03056175      0.05107843      0.04968362
 2200 2b a2      0.03056175     -0.05107843     -0.04968362
 2200 b2 2a     -0.03056175      0.05107843     -0.04968362
 2200 a2 2b      0.03056175     -0.05107843      0.04968362
 
 Energy:      -684.67827799   -684.58194212   -684.57844796
 


 **********************************************************************************************************************************
 DATASETS  * FILE   NREC   LENGTH (MB)   RECORD NAMES
              1      21      603.53       500      700      610      701      900      950      970     1000      129      960   
                                          VAR     GEOM    BASINP    GEOM    SYMINP    ZMAT    AOBASIS   BASIS     P2S    ABASIS    
                                         1100     1400     1410     1200     1210     1080     1600     1650     1300     1700   
                                           S        T        V       H0       H01     AOSYM     SMH    MOLCAS    ERIS     OPER   
                                         1380   
                                         JKOP   

              2       9       18.31       500      610      700     1000      520     2100     2140      701     2140(1)
                                          VAR    BASINP    GEOM     BASIS   MCVARS     RHF     MCSCF    GEOM     MCSCF   

 PROGRAMS   *        TOTAL     MULTI       INT   RESTART
 CPU TIMES  *        43.13      5.81     37.22      0.01
 REAL TIME  *        45.23 SEC
 DISK USED  *         1.83 GB
 **********************************************************************************************************************************


 PROGRAM * CI (Multireference internally contracted CI)     Authors: H.-J. Werner, P.J. Knowles, 1987


 Convergence thresholds:  THRVAR = 1.00D-08  THRDEN = 1.00D-06

 Number of optimized states: 2  Roots:    1   2
 Number of reference states: 2  Roots:    1   2

 Program parameters:       NSTATE=  2    NSTATI=  3    NSTATR=  2    NCEPA = -1    NOKOP =  0    ITRDM =  0    ITRANS=  0
                           IDIP  =200    MAXIT =250    MAXITI=250    MAXDAV=  6    MAXVI =  9    NOSING=  0    NOPAIR=  0
                           MXSHRF=  5    IKCPS =  0    IOPTGM=  2    IOPTOR=  0    REFOPT=  1    IAVDEN=  0    IDELCG=  1
                           IREST =  0    NATORB=  0    IPUNRF=  0    ISEP  =  0    OLDDEN=  0    NSTPRI=  1    GPSFLI= -1
                           CLUSTE=  0    CLOSED=  1    ILSTYP=  0    ITRLS =  0    ICCSD =  0    LOCAL =  0    IBASO =  0
                           MP    =  0    ITEDIS=  2    INCDIS=  1    MAXDIS=  6    ITYDIS=  1    BRUECK=  0    IBRSTR=  3
                           INCBRK=  1    TRIPLE=  0    ICCTYP=  2    IHPPD =  0    ICCNEW=  0    I3EXT = -1    IDEB  =  0
                           IDLEIG=  1    IDFTYP=  1    IMP3  =  0    IPROCS=  0    NOINT =  0    NOREF =  1    IMP2G =  0
                           IHINT =  0    IFDIA =  0    ISPARO=  1    JKSYM =  0    CPHF  =  0    MP2D  = -1    DKINT =  0
                           NPKEX =  1    DRVK  =  1    HLSTRA=  1    WIGNER=  1    DIIS_C=  1    MAXIT_= 50    MATEL =  0
                           SPDEG =  1    MEMCPH=  0    DISM  =  1    KDCPMA=  5    IKDCP_=  0    IREDTH=  0    USECS =  0
                           IPROCC=  0    I3SAVE=  1    IKDCP =  1    USECI =  0    OLDPAI=  0    IPROCI=  0    KEEPCL=  1
                           DISCON=  0    SHIFTE=  0    DIISIN=  0    MOLCAS=  0    MEM_PT=  0    RECORD=  0    RS2C  =  0
                           KEXT  = -1    CIPT2 =  0    DECP0S=  0    I4EXT = -1    NATCOR=  0    RIMP2 =  0    DDCI  = -1
                           IPOLAR=  0

 Reference symmetry:                   4   Triplet 
 Number of electrons:                 30
 Maximum number of shells:             5
 Maximum number of spin couplings:    90

 Reference space:      160 conf      384 CSFs
 N elec internal:      728 conf     1512 CSFs
 N-1 el internal:     1012 conf     3692 CSFs
 N-2 el internal:      928 conf     6529 CSFs

 Number of electrons in valence space:                     10
 Maximum number of open shell orbitals in reference space:  6
 Maximum number of open shell orbitals in internal spaces: 10


 Number of core orbitals:          10 (   6   2   2   0 )
 Number of active  orbitals:        8 (   4   2   2   0 )
 Number of external orbitals:     244 (  86  60  60  38 )

 Molecular orbitals read from record     2140.2  Type=MCSCF/NATURAL (state averaged)

 Valence orbitals related to previous ones by unitary transformation. Operators transformed.


 Number of p-space configurations:   9

 Reference wavefunction optimized for reference space (refopt=1)

 State     Reference Energy 
     1      -684.72303378
     2      -684.59425753
     3      -684.58418728

 Number of blocks in overlap matrix:     8   Smallest eigenvalue:  0.13D-02
 Number of N-2 electron functions:     128
 Number of N-1 electron functions:    3692

 Number of internal configurations:                  384
 Number of singly external configurations:        224728
 Number of doubly external configurations:        972960
 Total number of contracted configurations:      1198072
 Total number of uncontracted configurations:   48879436

 Diagonal Coupling coefficients finished.               Storage:  295058 words, CPU-Time:      0.05 seconds.
 Energy denominators for pairs finished in 1 passes.    Storage:  451592 words, CPU-time:      0.01 seconds.

  ITER. STATE  ROOT     SQ.NORM     CORR.ENERGY   TOTAL ENERGY   ENERGY CHANGE       DEN1      VAR(S)    VAR(P)      TIME
    1     1     1     1.00000000     0.00000000  -684.72303378    -0.00000000    -0.26247143  0.50D-01  0.64D-01     0.50
    1     2     2     1.00000000     0.00000000  -684.59425753    -0.00000000    -0.26715448  0.64D-01  0.61D-01     0.50
    2     1     1     1.09934420    -0.24472397  -684.96775776    -0.24472397    -0.00861880  0.27D-02  0.15D-02     7.82
    2     2     2     1.11103833    -0.25227848  -684.84653601    -0.25227848    -0.00835639  0.24D-02  0.15D-02     7.82
    3     1     1     1.10487748    -0.25354510  -684.97657888    -0.00882112    -0.00069482  0.18D-03  0.13D-03    15.17
    3     2     2     1.11965807    -0.26185344  -684.85611097    -0.00957496    -0.00070400  0.23D-03  0.14D-03    15.17
    4     1     1     1.10830855    -0.25431371  -684.97734750    -0.00076862    -0.00007453  0.26D-04  0.12D-04    22.62
    4     2     2     1.12642122    -0.26280029  -684.85705782    -0.00094685    -0.00010872  0.61D-04  0.20D-04    22.62
    5     1     1     1.10930876    -0.25440172  -684.97743551    -0.00008801    -0.00001061  0.46D-05  0.12D-05    29.98
    5     2     2     1.12953575    -0.26296874  -684.85722626    -0.00016845    -0.00003700  0.39D-04  0.53D-05    29.98
    6     1     1     1.10945018    -0.25441450  -684.97744829    -0.00001278    -0.00000169  0.61D-06  0.26D-06    37.38
    6     2     2     1.13184144    -0.26303894  -684.85729647    -0.00007021    -0.00002896  0.23D-04  0.41D-05    37.38
    7     1     1     1.10951729    -0.25441651  -684.97745029    -0.00000200    -0.00000035  0.20D-06  0.35D-07    44.75
    7     2     2     1.13453693    -0.26309175  -684.85734928    -0.00005281    -0.00002391  0.17D-04  0.28D-05    44.75
    8     1     1     1.10955625    -0.25441689  -684.97745068    -0.00000039    -0.00000008  0.36D-07  0.67D-08    52.01
    8     2     2     1.13604831    -0.26312397  -684.85738149    -0.00003222    -0.00001235  0.13D-04  0.13D-05    52.01
    9     1     1     1.10957051    -0.25441698  -684.97745076    -0.00000008    -0.00000002  0.66D-08  0.19D-08    59.38
    9     2     2     1.13734687    -0.26314288  -684.85740041    -0.00001892    -0.00000936  0.76D-05  0.13D-05    59.38
   10     1     1     1.10957051    -0.25441698  -684.97745076    -0.00000000    -0.00000002  0.66D-08  0.19D-08    64.50
   10     2     2     1.14427634    -0.26318085  -684.85743838    -0.00003797    -0.00000986  0.29D-05  0.17D-05    64.50
   11     1     1     1.10957051    -0.25441698  -684.97745076     0.00000000    -0.00000002  0.66D-08  0.19D-08    69.69
   11     2     2     1.14522201    -0.26319074  -684.85744827    -0.00000988    -0.00000135  0.60D-06  0.24D-06    69.69
   12     1     1     1.10957051    -0.25441698  -684.97745076    -0.00000000    -0.00000002  0.66D-08  0.19D-08    74.89
   12     2     2     1.14638800    -0.26319319  -684.85745072    -0.00000245    -0.00000063  0.27D-06  0.10D-06    74.89
   13     1     1     1.10957051    -0.25441698  -684.97745076    -0.00000000    -0.00000002  0.66D-08  0.19D-08    80.01
   13     2     2     1.14661321    -0.26319384  -684.85745136    -0.00000065    -0.00000015  0.13D-06  0.21D-07    80.01
   14     1     1     1.10957051    -0.25441698  -684.97745076    -0.00000000    -0.00000002  0.66D-08  0.19D-08    85.13
   14     2     2     1.14681814    -0.26319405  -684.85745158    -0.00000021    -0.00000008  0.69D-07  0.12D-07    85.13
   15     1     1     1.10957051    -0.25441698  -684.97745076    -0.00000000    -0.00000002  0.66D-08  0.19D-08    90.32
   15     2     2     1.14741744    -0.26319430  -684.85745183    -0.00000026    -0.00000010  0.50D-07  0.18D-07    90.32
   16     1     1     1.10957051    -0.25441698  -684.97745076     0.00000000    -0.00000002  0.66D-08  0.19D-08    95.40
   16     2     2     1.14759188    -0.26319443  -684.85745195    -0.00000012    -0.00000003  0.18D-07  0.49D-08    95.40
   17     1     1     1.10957051    -0.25441698  -684.97745076    -0.00000000    -0.00000002  0.66D-08  0.19D-08   100.47
   17     2     2     1.14778049    -0.26319449  -684.85745202    -0.00000007    -0.00000002  0.83D-08  0.33D-08   100.47
   18     1     1     1.10957051    -0.25441698  -684.97745076    -0.00000000    -0.00000002  0.66D-08  0.19D-08   105.69
   18     2     2     1.14781297    -0.26319451  -684.85745204    -0.00000002    -0.00000001  0.36D-08  0.74D-09   105.69


 =====================================
 Analysis of CPU times by interactions
 =====================================

       I      S      P

 I   0.2%
 S   0.1%   2.8%
 P   0.6%  13.4%  42.6%

 Initialization:   0.4%
 Other:           39.9%

 Total CPU:      105.7 seconds
 =====================================



 gnormi=  0.90124962  gnorms=  0.03822848  gnormp=  0.06052191  gnorm=  1.00000000
 ecorri= -0.22929320  ecorrs= -0.00972810  ecorrp= -0.01539568  ecorr= -0.25441698

 gnormi=  0.87122208  gnorms=  0.06915964  gnormp=  0.05961829  gnorm=  1.00000000
 ecorri= -0.22930087  ecorrs= -0.01820462  ecorrp= -0.01568902  ecorr= -0.26319451

 Wavefunction saved on  8620.2

 Reference coefficients greater than 0.0500000
 =============================================
 22002/2/           0.9071998   0.0000000
 2220/02/          -0.0305084   0.6464241
 22202//0           0.0305084   0.6464238
 2//02\2/           0.1622534  -0.0789514
 20202/2/          -0.1579612   0.0000000
 2//02/2\           0.1147304   0.1116541
 2200/22/           0.0188785  -0.0564197
 22002//2          -0.0188786  -0.0564196

 Coefficients of singly external configurations greater than 0.0500000
 =====================================================================

 22/02020   1.4     0.0000001  -0.1104534
 22/02020   2.4     0.0000000   0.0554218
 22/02020   3.4     0.0000000   0.0538275

 Coefficients of fixed reference functions:
 ==========================================

 State      Coefficients
 1           0.947590    0.000000
 2          -0.000000    0.933073

 Coefficients of rotated reference functions:
 ============================================

 State      Coefficients
 1           0.947590    0.000000
 2           0.000000    0.933073


 RESULTS FOR STATE 1.4
 =====================

 Coefficient of reference function:   C(0) = 0.94759040 (fixed)   0.94934168 (relaxed)   0.94759040 (rotated)

 Energy contributions of configuration classes

 CLASS          SQ.NORM        ECORR1        ECORR2
 +++++++++++++++++++++++++++++++++++++++++++++++++++
 Internals    0.00369969   -0.00000000   -0.16848784
 Singles      0.04257412   -0.06771744   -0.07053346
 Pairs        0.06740177   -0.00000001   -0.01539568
 Total        1.11367558   -0.06771745   -0.25441698
 +++++++++++++++++++++++++++++++++++++++++++++++++++


 Reference energy                    -684.72303378
 Nuclear energy                       105.83544218
 Kinetic energy                       691.63449061
 One electron energy                -1154.30505843
 Two electron energy                  363.49216549
 Virial quotient                       -0.99037492
 Correlation energy                    -0.25441698
 !MRCI STATE 1.4 Energy              -684.977450760828

 Properties without orbital relaxation:

 !MRCI STATE 1.4 Dipole moment          0.00000000     0.00000000     0.85787799
 Dipole moment /Debye                   0.00000000     0.00000000     2.18050837

 Cluster corrected energies          -685.00637176 (Davidson, fixed reference)
 Cluster corrected energies          -685.00532736 (Davidson, relaxed reference)
 Cluster corrected energies          -685.00637176 (Davidson, rotated reference)

 Cluster corrected energies          -685.00038636 (Pople, fixed reference)
 Cluster corrected energies          -684.99951457 (Pople, relaxed reference)
 Cluster corrected energies          -685.00038636 (Pople, rotated reference)



 RESULTS FOR STATE 2.4
 =====================

 Coefficient of reference function:   C(0) = 0.93307265 (fixed)   0.93339278 (relaxed)   0.93307265 (rotated)

 Energy contributions of configuration classes

 CLASS          SQ.NORM        ECORR1        ECORR2
 +++++++++++++++++++++++++++++++++++++++++++++++++++
 Internals    0.00068630   -0.00000000   -0.00015726
 Singles      0.07943681   -0.08229721   -0.08985459
 Pairs        0.06847761   -0.18089730   -0.17318266
 Total        1.14860072   -0.26319451   -0.26319451
 +++++++++++++++++++++++++++++++++++++++++++++++++++


 Reference energy                    -684.59425753
 Nuclear energy                       105.83544218
 Kinetic energy                       692.63595243
 One electron energy                -1154.12014045
 Two electron energy                  363.42724623
 Virial quotient                       -0.98876971
 Correlation energy                    -0.26319451
 !MRCI STATE 2.4 Energy              -684.857452041208

 Properties without orbital relaxation:

 !MRCI STATE 2.4 Dipole moment          0.00000000     0.00000000     1.37342475
 Dipole moment /Debye                   0.00000000     0.00000000     3.49089752

 Cluster corrected energies          -684.89656294 (Davidson, fixed reference)
 Cluster corrected energies          -684.89635560 (Davidson, relaxed reference)
 Cluster corrected energies          -684.89656294 (Davidson, rotated reference)

 Cluster corrected energies          -684.88898797 (Pople, fixed reference)
 Cluster corrected energies          -684.88880915 (Pople, relaxed reference)
 Cluster corrected energies          -684.88898797 (Pople, rotated reference)


 !MRCI trans          <2.4|DMZ|1.4>     0.000000243243 au =     0.000000618262 Debye


 **********************************************************************************************************************************
 DATASETS  * FILE   NREC   LENGTH (MB)   RECORD NAMES
              1      21      603.53       500      700      610      701      900      950      970     1000      129      960   
                                          VAR     GEOM    BASINP    GEOM    SYMINP    ZMAT    AOBASIS   BASIS     P2S    ABASIS    
                                         1100     1400     1410     1200     1210     1080     1600     1650     1300     1700   
                                           S        T        V       H0       H01     AOSYM     SMH    MOLCAS    ERIS     OPER   
                                         1380   
                                         JKOP   

              2      10       37.42       500      610      700     1000      520     2100     2140      701     2140(1)  8620   
                                          VAR    BASINP    GEOM     BASIS   MCVARS     RHF     MCSCF    GEOM     MCSCF    MRCI   

 PROGRAMS   *        TOTAL        CI     MULTI       INT   RESTART
 CPU TIMES  *       149.08    105.95      5.81     37.22      0.01
 REAL TIME  *       155.64 SEC
 DISK USED  *         1.83 GB
 **********************************************************************************************************************************


 PROGRAM * CI (Multireference internally contracted CI)     Authors: H.-J. Werner, P.J. Knowles, 1987


 Convergence thresholds:  THRVAR = 1.00D-08  THRDEN = 1.00D-06

 Number of optimized states: 2  Roots:    1   2
 Number of reference states: 2  Roots:    1   2

 Program parameters:       NSTATE=  2    NSTATI=  3    NSTATR=  2    NCEPA = -1    NOKOP =  0    ITRDM =  0    ITRANS=  0
                           IDIP  =200    MAXIT =250    MAXITI=250    MAXDAV=  6    MAXVI =  9    NOSING=  0    NOPAIR=  0
                           MXSHRF=  6    IKCPS =  0    IOPTGM=  2    IOPTOR=  0    REFOPT=  1    IAVDEN=  0    IDELCG=  1
                           IREST =  0    NATORB=  0    IPUNRF=  0    ISEP  =  0    OLDDEN=  0    NSTPRI=  1    GPSFLI= -1
                           CLUSTE=  0    CLOSED=  1    ILSTYP=  0    ITRLS =  0    ICCSD =  0    LOCAL =  0    IBASO =  0
                           MP    =  0    ITEDIS=  2    INCDIS=  1    MAXDIS=  6    ITYDIS=  1    BRUECK=  0    IBRSTR=  3
                           INCBRK=  1    TRIPLE=  0    ICCTYP=  2    IHPPD =  0    ICCNEW=  0    I3EXT = -1    IDEB  =  0
                           IDLEIG=  1    IDFTYP=  1    IMP3  =  0    IPROCS=  0    NOINT =  0    NOREF =  1    IMP2G =  0
                           IHINT =  0    IFDIA =  0    ISPARO=  1    JKSYM =  0    CPHF  =  0    MP2D  = -1    DKINT =  0
                           NPKEX =  1    DRVK  =  1    HLSTRA=  1    WIGNER=  1    DIIS_C=  1    MAXIT_= 50    MATEL =  0
                           SPDEG =  1    MEMCPH=  0    DISM  =  1    KDCPMA=  5    IKDCP_=  0    IREDTH=  0    USECS =  0
                           IPROCC=  0    I3SAVE=  1    IKDCP =  1    USECI =  0    OLDPAI=  0    IPROCI=  0    KEEPCL=  1
                           DISCON=  0    SHIFTE=  0    DIISIN=  0    MOLCAS=  0    MEM_PT=  0    RECORD=  0    RS2C  =  0
                           KEXT  = -1    CIPT2 =  0    DECP0S=  0    I4EXT = -1    NATCOR=  0    RIMP2 =  0    DDCI  = -1
                           IPOLAR=  0

 Reference symmetry:                   4   Singlet 
 Number of electrons:                 30
 Maximum number of shells:             6
 Maximum number of spin couplings:    42

 Reference space:      160 conf      272 CSFs
 N elec internal:      784 conf     1176 CSFs
 N-1 el internal:     1012 conf     2348 CSFs
 N-2 el internal:      928 conf     3697 CSFs

 Number of electrons in valence space:                     10
 Maximum number of open shell orbitals in reference space:  6
 Maximum number of open shell orbitals in internal spaces: 10


 Number of core orbitals:          10 (   6   2   2   0 )
 Number of active  orbitals:        8 (   4   2   2   0 )
 Number of external orbitals:     244 (  86  60  60  38 )

 Molecular orbitals read from record     2140.2  Type=MCSCF/NATURAL (state averaged)

 Coulomb and exchange operators available. No transformation done.


 Number of p-space configurations:   8

 Reference wavefunction optimized for reference space (refopt=1)

 State     Reference Energy 
     1      -684.67827799
     2      -684.58194212
     3      -684.57844796

 Number of blocks in overlap matrix:     8   Smallest eigenvalue:  0.69D-03
 Number of N-2 electron functions:     128
 Number of N-1 electron functions:    2348

 Number of internal configurations:                  272
 Number of singly external configurations:        141976
 Number of doubly external configurations:        972960
 Total number of contracted configurations:      1115208
 Total number of uncontracted configurations:   27707036

 Diagonal Coupling coefficients finished.               Storage:  185115 words, CPU-Time:      0.04 seconds.
 Energy denominators for pairs finished in 1 passes.    Storage:  362457 words, CPU-time:      0.02 seconds.

  ITER. STATE  ROOT     SQ.NORM     CORR.ENERGY   TOTAL ENERGY   ENERGY CHANGE       DEN1      VAR(S)    VAR(P)      TIME
    1     1     1     1.00000000     0.00000000  -684.67827799     0.00000000    -0.29128330  0.95D-01  0.67D-01     0.13
    1     2     2     1.00000000     0.00000000  -684.58194212    -0.00000000    -0.26656014  0.61D-01  0.60D-01     0.13
    2     1     1     1.13182703    -0.26268283  -684.94096082    -0.26268283    -0.01268514  0.40D-02  0.27D-02     7.00
    2     2     2     1.10876857    -0.25265598  -684.83459810    -0.25265598    -0.00903925  0.25D-02  0.17D-02     7.00
    3     1     1     1.13759313    -0.27558373  -684.95386172    -0.01290090    -0.00113873  0.61D-03  0.20D-03    13.89
    3     2     2     1.11622413    -0.26279998  -684.84474211    -0.01014401    -0.00080938  0.20D-03  0.17D-03    13.89
    4     1     1     1.14988826    -0.27702998  -684.95530797    -0.00144625    -0.00024682  0.17D-03  0.38D-04    20.78
    4     2     2     1.12175564    -0.26383128  -684.84577340    -0.00103129    -0.00012234  0.52D-04  0.23D-04    20.78
    5     1     1     1.16037416    -0.27741611  -684.95569411    -0.00038614    -0.00010036  0.53D-04  0.17D-04    27.59
    5     2     2     1.12389283    -0.26400356  -684.84594568    -0.00017229    -0.00003435  0.23D-04  0.61D-05    27.59
    6     1     1     1.16524267    -0.27756373  -684.95584173    -0.00014762    -0.00003837  0.27D-04  0.52D-05    34.58
    6     2     2     1.12490070    -0.26406170  -684.84600382    -0.00005813    -0.00002433  0.25D-04  0.31D-05    34.58
    7     1     1     1.16824504    -0.27761019  -684.95588818    -0.00004646    -0.00001312  0.68D-05  0.22D-05    41.37
    7     2     2     1.12618161    -0.26409820  -684.84604033    -0.00003651    -0.00001860  0.14D-04  0.30D-05    41.37
    8     1     1     1.17012477    -0.27762639  -684.95590438    -0.00001620    -0.00000540  0.33D-05  0.71D-06    48.29
    8     2     2     1.12743300    -0.26412681  -684.84606893    -0.00002860    -0.00001736  0.15D-04  0.24D-05    48.29
    9     1     1     1.17146384    -0.27763374  -684.95591173    -0.00000735    -0.00000229  0.15D-05  0.28D-06    55.16
    9     2     2     1.12868703    -0.26415709  -684.84609921    -0.00003029    -0.00001974  0.20D-04  0.24D-05    55.16
   10     1     1     1.17228519    -0.27763650  -684.95591450    -0.00000276    -0.00000084  0.42D-06  0.14D-06    61.97
   10     2     2     1.13021597    -0.26418574  -684.84612786    -0.00002865    -0.00001732  0.12D-04  0.29D-05    61.97
   11     1     1     1.17275188    -0.27763752  -684.95591551    -0.00000101    -0.00000035  0.22D-06  0.42D-07    68.82
   11     2     2     1.13181204    -0.26421147  -684.84615359    -0.00002573    -0.00001676  0.15D-04  0.22D-05    68.82
   12     1     1     1.17309448    -0.27763798  -684.95591597    -0.00000046    -0.00000015  0.93D-07  0.19D-07    75.70
   12     2     2     1.13342564    -0.26423837  -684.84618049    -0.00002689    -0.00001781  0.17D-04  0.22D-05    75.70
   13     1     1     1.17330184    -0.27763815  -684.95591615    -0.00000018    -0.00000005  0.28D-07  0.88D-08    82.55
   13     2     2     1.13533281    -0.26426404  -684.84620616    -0.00002567    -0.00001619  0.11D-04  0.26D-05    82.55
   14     1     1     1.17342001    -0.27763822  -684.95591621    -0.00000007    -0.00000002  0.15D-07  0.28D-08    89.37
   14     2     2     1.13737738    -0.26428848  -684.84623060    -0.00002443    -0.00001616  0.14D-04  0.22D-05    89.37
   15     1     1     1.17350198    -0.27763825  -684.95591624    -0.00000003    -0.00000001  0.61D-08  0.13D-08    96.29
   15     2     2     1.13920561    -0.26431229  -684.84625441    -0.00002381    -0.00001553  0.16D-04  0.19D-05    96.29
   16     1     1     1.17364032    -0.27763827  -684.95591626    -0.00000002    -0.00000000  0.13D-08  0.21D-09   101.08
   16     2     2     1.19769532    -0.26453390  -684.84647602    -0.00022162    -0.00014108  0.10D-03  0.15D-04   101.08
   17     1     1     1.17364358    -0.27763827  -684.95591626    -0.00000000    -0.00000000  0.14D-08  0.21D-09   105.88
   17     2     2     1.20348354    -0.26465705  -684.84659917    -0.00012315    -0.00001783  0.15D-04  0.29D-05   105.88
   18     1     1     1.17362933    -0.27763827  -684.95591626    -0.00000000    -0.00000000  0.68D-09  0.21D-09   110.63
   18     2     2     1.21146020    -0.26469012  -684.84663224    -0.00003307    -0.00002061  0.14D-04  0.20D-05   110.63
   19     1     1     1.17362783    -0.27763827  -684.95591626    -0.00000000    -0.00000000  0.63D-09  0.20D-09   115.40
   19     2     2     1.21675699    -0.26471393  -684.84665605    -0.00002381    -0.00001048  0.68D-05  0.17D-05   115.40
   20     1     1     1.17362491    -0.27763827  -684.95591626    -0.00000000    -0.00000000  0.54D-09  0.20D-09   120.22
   20     2     2     1.22093446    -0.26472846  -684.84667058    -0.00001453    -0.00000714  0.57D-05  0.12D-05   120.22
   21     1     1     1.17362424    -0.27763827  -684.95591626    -0.00000000    -0.00000000  0.52D-09  0.20D-09   125.01
   21     2     2     1.23142541    -0.26474677  -684.84668889    -0.00001830    -0.00001109  0.10D-04  0.11D-05   125.01
   22     1     1     1.17362895    -0.27763827  -684.95591626    -0.00000000    -0.00000000  0.63D-09  0.22D-09   129.80
   22     2     2     1.23733513    -0.26476243  -684.84670455    -0.00001566    -0.00000883  0.43D-05  0.15D-05   129.80
   23     1     1     1.17363892    -0.27763827  -684.95591626    -0.00000000    -0.00000000  0.66D-09  0.17D-09   134.61
   23     2     2     1.24915073    -0.26478446  -684.84672658    -0.00002203    -0.00001649  0.91D-05  0.15D-05   134.61
   24     1     1     1.17364170    -0.27763827  -684.95591626    -0.00000000    -0.00000000  0.72D-09  0.17D-09   139.41
   24     2     2     1.25500271    -0.26480163  -684.84674375    -0.00001717    -0.00000768  0.46D-05  0.11D-05   139.41
   25     1     1     1.17364281    -0.27763827  -684.95591626    -0.00000000    -0.00000000  0.74D-09  0.17D-09   144.19
   25     2     2     1.25877964    -0.26481136  -684.84675348    -0.00000973    -0.00000474  0.41D-05  0.66D-06   144.19
   26     1     1     1.17364333    -0.27763827  -684.95591626    -0.00000000    -0.00000000  0.75D-09  0.16D-09   148.97
   26     2     2     1.26501788    -0.26482049  -684.84676262    -0.00000914    -0.00000643  0.56D-05  0.75D-06   148.97
   27     1     1     1.17364168    -0.27763827  -684.95591626    -0.00000000    -0.00000000  0.70D-09  0.16D-09   153.73
   27     2     2     1.27147542    -0.26483033  -684.84677245    -0.00000984    -0.00000592  0.28D-05  0.10D-05   153.73
   28     1     1     1.17363916    -0.27763827  -684.95591626    -0.00000000    -0.00000000  0.66D-09  0.17D-09   158.54
   28     2     2     1.28238947    -0.26484314  -684.84678526    -0.00001280    -0.00000984  0.55D-05  0.10D-05   158.54
   29     1     1     1.17363852    -0.27763827  -684.95591626    -0.00000000    -0.00000000  0.63D-09  0.17D-09   163.34
   29     2     2     1.28805648    -0.26485379  -684.84679591    -0.00001065    -0.00000534  0.30D-05  0.73D-06   163.34
   30     1     1     1.17363888    -0.27763827  -684.95591626    -0.00000000    -0.00000000  0.64D-09  0.17D-09   168.09
   30     2     2     1.29192477    -0.26486067  -684.84680280    -0.00000689    -0.00000344  0.23D-05  0.52D-06   168.09
   31     1     1     1.17364057    -0.27763827  -684.95591626    -0.00000000    -0.00000000  0.67D-09  0.16D-09   172.86
   31     2     2     1.29709905    -0.26486663  -684.84680875    -0.00000595    -0.00000424  0.35D-05  0.47D-06   172.86
   32     1     1     1.17364190    -0.27763827  -684.95591626    -0.00000000    -0.00000000  0.71D-09  0.16D-09   177.66
   32     2     2     1.30261310    -0.26487306  -684.84681519    -0.00000644    -0.00000384  0.20D-05  0.52D-06   177.66
   33     1     1     1.17364202    -0.27763827  -684.95591626    -0.00000000    -0.00000000  0.71D-09  0.16D-09   182.43
   33     2     2     1.31160821    -0.26488109  -684.84682321    -0.00000802    -0.00000619  0.39D-05  0.62D-06   182.43
   34     1     1     1.17364148    -0.27763827  -684.95591626    -0.00000000    -0.00000000  0.69D-09  0.16D-09   187.19
   34     2     2     1.31695125    -0.26488804  -684.84683016    -0.00000695    -0.00000370  0.21D-05  0.50D-06   187.19
   35     1     1     1.17364094    -0.27763827  -684.95591626    -0.00000000    -0.00000000  0.68D-09  0.16D-09   191.97
   35     2     2     1.32087533    -0.26489282  -684.84683494    -0.00000477    -0.00000243  0.16D-05  0.38D-06   191.97
   36     1     1     1.17364044    -0.27763827  -684.95591626    -0.00000000    -0.00000000  0.66D-09  0.16D-09   196.75
   36     2     2     1.32567812    -0.26489688  -684.84683900    -0.00000406    -0.00000292  0.22D-05  0.35D-06   196.75
   37     1     1     1.17364007    -0.27763827  -684.95591626    -0.00000000    -0.00000000  0.65D-09  0.16D-09   201.54
   37     2     2     1.33061914    -0.26490119  -684.84684331    -0.00000432    -0.00000252  0.13D-05  0.33D-06   201.54
   38     1     1     1.17363961    -0.27763827  -684.95591626    -0.00000000    -0.00000000  0.65D-09  0.17D-09   206.32
   38     2     2     1.33840341    -0.26490640  -684.84684852    -0.00000521    -0.00000402  0.26D-05  0.39D-06   206.32
   39     1     1     1.17363959    -0.27763827  -684.95591626     0.00000000    -0.00000000  0.65D-09  0.17D-09   211.11
   39     2     2     1.34330283    -0.26491107  -684.84685319    -0.00000466    -0.00000257  0.13D-05  0.34D-06   211.11
   40     1     1     1.17364018    -0.27763827  -684.95591626    -0.00000000    -0.00000000  0.66D-09  0.16D-09   215.87
   40     2     2     1.34690831    -0.26491436  -684.84685648    -0.00000330    -0.00000170  0.10D-05  0.26D-06   215.87
   41     1     1     1.17364079    -0.27763827  -684.95591626    -0.00000000    -0.00000000  0.67D-09  0.16D-09   220.66
   41     2     2     1.35111218    -0.26491716  -684.84685928    -0.00000280    -0.00000199  0.15D-05  0.24D-06   220.66
   42     1     1     1.17364105    -0.27763827  -684.95591626    -0.00000000    -0.00000000  0.67D-09  0.16D-09   225.40
   42     2     2     1.35534549    -0.26492004  -684.84686216    -0.00000288    -0.00000167  0.89D-06  0.22D-06   225.40
   43     1     1     1.17364069    -0.27763827  -684.95591626    -0.00000000    -0.00000000  0.67D-09  0.16D-09   230.16
   43     2     2     1.36211453    -0.26492353  -684.84686566    -0.00000349    -0.00000266  0.16D-05  0.27D-06   230.16
   44     1     1     1.17364060    -0.27763827  -684.95591626    -0.00000000    -0.00000000  0.66D-09  0.16D-09   234.91
   44     2     2     1.36651766    -0.26492668  -684.84686881    -0.00000315    -0.00000177  0.86D-06  0.25D-06   234.91
   45     1     1     1.17364083    -0.27763827  -684.95591626    -0.00000000    -0.00000000  0.67D-09  0.16D-09   239.66
   45     2     2     1.36975875    -0.26492894  -684.84687106    -0.00000225    -0.00000118  0.69D-06  0.18D-06   239.66
   46     1     1     1.17364068    -0.27763827  -684.95591626    -0.00000000    -0.00000000  0.66D-09  0.16D-09   244.43
   46     2     2     1.37350587    -0.26493087  -684.84687299    -0.00000194    -0.00000135  0.10D-05  0.16D-06   244.43
   47     1     1     1.17364025    -0.27763827  -684.95591626    -0.00000000    -0.00000000  0.65D-09  0.16D-09   249.17
   47     2     2     1.37718065    -0.26493280  -684.84687492    -0.00000192    -0.00000113  0.63D-06  0.14D-06   249.17
   48     1     1     1.17363967    -0.27763827  -684.95591626    -0.00000000    -0.00000000  0.64D-09  0.16D-09   253.94
   48     2     2     1.38306946    -0.26493514  -684.84687726    -0.00000234    -0.00000173  0.95D-06  0.19D-06   253.94
   49     1     1     1.17363993    -0.27763827  -684.95591626    -0.00000000    -0.00000000  0.65D-09  0.16D-09   258.69
   49     2     2     1.38692045    -0.26493725  -684.84687937    -0.00000211    -0.00000122  0.53D-06  0.18D-06   258.69
   50     1     1     1.17364057    -0.27763827  -684.95591626    -0.00000000    -0.00000000  0.66D-09  0.16D-09   263.46
   50     2     2     1.38974965    -0.26493879  -684.84688091    -0.00000154    -0.00000082  0.48D-06  0.12D-06   263.46
   51     1     1     1.17364079    -0.27763827  -684.95591626    -0.00000000    -0.00000000  0.66D-09  0.16D-09   268.20
   51     2     2     1.39297589    -0.26494012  -684.84688224    -0.00000132    -0.00000090  0.68D-06  0.10D-06   268.20
   52     1     1     1.17364058    -0.27763827  -684.95591626    -0.00000000    -0.00000000  0.66D-09  0.16D-09   272.97
   52     2     2     1.39610495    -0.26494140  -684.84688352    -0.00000128    -0.00000076  0.45D-06  0.10D-06   272.97
   53     1     1     1.17364015    -0.27763827  -684.95591626    -0.00000000    -0.00000000  0.65D-09  0.16D-09   277.71
   53     2     2     1.40113169    -0.26494296  -684.84688509    -0.00000156    -0.00000112  0.54D-06  0.13D-06   277.71
   54     1     1     1.17364041    -0.27763827  -684.95591626    -0.00000000    -0.00000000  0.65D-09  0.16D-09   282.48
   54     2     2     1.40446020    -0.26494438  -684.84688650    -0.00000141    -0.00000083  0.35D-06  0.12D-06   282.48
   55     1     1     1.17364068    -0.27763827  -684.95591626    -0.00000000    -0.00000000  0.66D-09  0.16D-09   287.24
   55     2     2     1.40690935    -0.26494543  -684.84688755    -0.00000105    -0.00000056  0.34D-06  0.79D-07   287.24
   56     1     1     1.17364045    -0.27763827  -684.95591626    -0.00000000    -0.00000000  0.65D-09  0.16D-09   292.01
   56     2     2     1.40969164    -0.26494633  -684.84688845    -0.00000090    -0.00000060  0.45D-06  0.70D-07   292.01
   57     1     1     1.17364014    -0.27763827  -684.95591626    -0.00000000    -0.00000000  0.64D-09  0.16D-09   296.78
   57     2     2     1.41237970    -0.26494719  -684.84688931    -0.00000086    -0.00000052  0.31D-06  0.70D-07   296.78
   58     1     1     1.17364007    -0.27763827  -684.95591626    -0.00000000    -0.00000000  0.64D-09  0.16D-09   301.55
   58     2     2     1.41657480    -0.26494822  -684.84689035    -0.00000103    -0.00000073  0.32D-06  0.96D-07   301.55
   59     1     1     1.17364052    -0.27763827  -684.95591626    -0.00000000    -0.00000000  0.65D-09  0.16D-09   306.32
   59     2     2     1.41942634    -0.26494918  -684.84689130    -0.00000095    -0.00000057  0.24D-06  0.82D-07   306.32
   60     1     1     1.17364068    -0.27763827  -684.95591626    -0.00000000    -0.00000000  0.65D-09  0.16D-09   311.09
   60     2     2     1.42151880    -0.26494989  -684.84689201    -0.00000071    -0.00000038  0.25D-06  0.52D-07   311.09
   61     1     1     1.17364029    -0.27763827  -684.95591626    -0.00000000    -0.00000000  0.64D-09  0.16D-09   315.88
   61     2     2     1.42390648    -0.26495050  -684.84689262    -0.00000061    -0.00000041  0.29D-06  0.48D-07   315.88
   62     1     1     1.17364008    -0.27763827  -684.95591626    -0.00000000    -0.00000000  0.64D-09  0.16D-09   320.62
   62     2     2     1.42619630    -0.26495108  -684.84689320    -0.00000058    -0.00000035  0.20D-06  0.49D-07   320.62
   63     1     1     1.17364025    -0.27763827  -684.95591626    -0.00000000    -0.00000000  0.64D-09  0.16D-09   325.34
   63     2     2     1.42965253    -0.26495176  -684.84689388    -0.00000068    -0.00000048  0.20D-06  0.68D-07   325.34
   64     1     1     1.17364067    -0.27763827  -684.95591626    -0.00000000    -0.00000000  0.65D-09  0.16D-09   330.09
   64     2     2     1.43209102    -0.26495240  -684.84689452    -0.00000064    -0.00000038  0.16D-06  0.54D-07   330.09
   65     1     1     1.17364064    -0.27763827  -684.95591626     0.00000000    -0.00000000  0.65D-09  0.16D-09   334.80
   65     2     2     1.43386845    -0.26495288  -684.84689501    -0.00000048    -0.00000026  0.18D-06  0.34D-07   334.80
   66     1     1     1.17364014    -0.27763827  -684.95591626    -0.00000000    -0.00000000  0.64D-09  0.16D-09   339.54
   66     2     2     1.43591988    -0.26495330  -684.84689542    -0.00000041    -0.00000027  0.18D-06  0.34D-07   339.54
   67     1     1     1.17364011    -0.27763827  -684.95591626     0.00000000    -0.00000000  0.64D-09  0.16D-09   344.29
   67     2     2     1.43785190    -0.26495369  -684.84689581    -0.00000039    -0.00000023  0.12D-06  0.34D-07   344.29
   68     1     1     1.17364038    -0.27763827  -684.95591626    -0.00000000    -0.00000000  0.64D-09  0.16D-09   349.01
   68     2     2     1.44069378    -0.26495414  -684.84689626    -0.00000045    -0.00000032  0.14D-06  0.47D-07   349.01
   69     1     1     1.17364069    -0.27763827  -684.95591626    -0.00000000    -0.00000000  0.65D-09  0.16D-09   353.72
   69     2     2     1.44276296    -0.26495457  -684.84689670    -0.00000043    -0.00000026  0.11D-06  0.35D-07   353.72
   70     1     1     1.17364052    -0.27763827  -684.95591626    -0.00000000    -0.00000000  0.65D-09  0.16D-09   358.45
   70     2     2     1.44427028    -0.26495490  -684.84689702    -0.00000032    -0.00000018  0.13D-06  0.23D-07   358.45
   71     1     1     1.17364008    -0.27763827  -684.95591626    -0.00000000    -0.00000000  0.63D-09  0.16D-09   363.18
   71     2     2     1.44602259    -0.26495518  -684.84689730    -0.00000028    -0.00000018  0.11D-06  0.25D-07   363.18
   72     1     1     1.17364029    -0.27763827  -684.95591626    -0.00000000    -0.00000000  0.64D-09  0.16D-09   367.93
   72     2     2     1.44763105    -0.26495544  -684.84689756    -0.00000026    -0.00000016  0.73D-07  0.24D-07   367.93
   73     1     1     1.17364054    -0.27763827  -684.95591626    -0.00000000    -0.00000000  0.64D-09  0.15D-09   372.69
   73     2     2     1.44996945    -0.26495574  -684.84689787    -0.00000030    -0.00000022  0.95D-07  0.31D-07   372.69
   74     1     1     1.17364066    -0.27763827  -684.95591626    -0.00000000    -0.00000000  0.65D-09  0.15D-09   377.49
   74     2     2     1.45171402    -0.26495604  -684.84689816    -0.00000029    -0.00000017  0.79D-07  0.22D-07   377.49
   75     1     1     1.17364040    -0.27763827  -684.95591626    -0.00000000    -0.00000000  0.64D-09  0.16D-09   382.27
   75     2     2     1.45299523    -0.26495625  -684.84689838    -0.00000022    -0.00000012  0.90D-07  0.15D-07   382.27
   76     1     1     1.17364007    -0.27763827  -684.95591626    -0.00000000    -0.00000000  0.63D-09  0.16D-09   387.08
   76     2     2     1.45447710    -0.26495645  -684.84689857    -0.00000019    -0.00000012  0.65D-07  0.18D-07   387.08
   77     1     1     1.17364045    -0.27763827  -684.95591626    -0.00000000    -0.00000000  0.64D-09  0.16D-09   391.89
   77     2     2     1.45580533    -0.26495662  -684.84689874    -0.00000018    -0.00000011  0.46D-07  0.17D-07   391.89
   78     1     1     1.17364058    -0.27763827  -684.95591626    -0.00000000    -0.00000000  0.64D-09  0.15D-09   396.74
   78     2     2     1.45772596    -0.26495682  -684.84689894    -0.00000020    -0.00000014  0.66D-07  0.20D-07   396.74
   79     1     1     1.17364058    -0.27763827  -684.95591626     0.00000000    -0.00000000  0.64D-09  0.15D-09   401.64
   79     2     2     1.45919066    -0.26495702  -684.84689914    -0.00000020    -0.00000012  0.56D-07  0.15D-07   401.64
   80     1     1     1.17364034    -0.27763827  -684.95591626    -0.00000000    -0.00000000  0.64D-09  0.16D-09   406.48
   80     2     2     1.46027883    -0.26495717  -684.84689929    -0.00000015    -0.00000008  0.61D-07  0.10D-07   406.48
   81     1     1     1.17364016    -0.27763827  -684.95591626    -0.00000000    -0.00000000  0.63D-09  0.16D-09   411.30
   81     2     2     1.46151824    -0.26495729  -684.84689942    -0.00000013    -0.00000008  0.38D-07  0.13D-07   411.30
   82     1     1     1.17364059    -0.27763827  -684.95591626    -0.00000000    -0.00000000  0.64D-09  0.15D-09   416.16
   82     2     2     1.46260961    -0.26495741  -684.84689953    -0.00000012    -0.00000007  0.30D-07  0.11D-07   416.16
   83     1     1     1.17364053    -0.27763827  -684.95591626    -0.00000000    -0.00000000  0.64D-09  0.15D-09   420.93
   83     2     2     1.46418481    -0.26495755  -684.84689967    -0.00000013    -0.00000010  0.45D-07  0.13D-07   420.93
   84     1     1     1.17364047    -0.27763827  -684.95591626    -0.00000000    -0.00000000  0.64D-09  0.15D-09   425.72
   84     2     2     1.46541406    -0.26495768  -684.84689980    -0.00000013    -0.00000008  0.38D-07  0.10D-07   425.72
   85     1     1     1.17364032    -0.27763827  -684.95591626    -0.00000000    -0.00000000  0.64D-09  0.16D-09   430.53
   85     2     2     1.46633308    -0.26495778  -684.84689990    -0.00000010    -0.00000006  0.40D-07  0.68D-08   430.53
   86     1     1     1.17364025    -0.27763827  -684.95591626     0.00000000    -0.00000000  0.63D-09  0.16D-09   435.31
   86     2     2     1.46736114    -0.26495786  -684.84689999    -0.00000009    -0.00000006  0.23D-07  0.94D-08   435.31
   87     1     1     1.17364067    -0.27763827  -684.95591626    -0.00000000    -0.00000000  0.64D-09  0.15D-09   440.10
   87     2     2     1.46825451    -0.26495794  -684.84690006    -0.00000008    -0.00000005  0.21D-07  0.77D-08   440.10
   88     1     1     1.17364048    -0.27763827  -684.95591626    -0.00000000    -0.00000000  0.64D-09  0.16D-09   444.89
   88     2     2     1.46954607    -0.26495803  -684.84690015    -0.00000009    -0.00000006  0.30D-07  0.86D-08   444.89
   89     1     1     1.17364041    -0.27763827  -684.95591626     0.00000000    -0.00000000  0.64D-09  0.15D-09   449.74
   89     2     2     1.47057692    -0.26495812  -684.84690024    -0.00000009    -0.00000005  0.26D-07  0.68D-08   449.74
   90     1     1     1.17364035    -0.27763827  -684.95591626    -0.00000000    -0.00000000  0.64D-09  0.16D-09   454.52
   90     2     2     1.47134799    -0.26495819  -684.84690031    -0.00000007    -0.00000004  0.26D-07  0.46D-08   454.52
   91     1     1     1.17364030    -0.27763827  -684.95591626     0.00000000    -0.00000000  0.63D-09  0.16D-09   459.33
   91     2     2     1.47219644    -0.26495825  -684.84690037    -0.00000006    -0.00000004  0.15D-07  0.65D-08   459.33
   92     1     1     1.17364067    -0.27763827  -684.95591626    -0.00000000    -0.00000000  0.64D-09  0.15D-09   464.22
   92     2     2     1.47292671    -0.26495830  -684.84690042    -0.00000005    -0.00000003  0.14D-07  0.52D-08   464.22
   93     1     1     1.17364044    -0.27763827  -684.95591626    -0.00000000    -0.00000000  0.63D-09  0.16D-09   469.09
   93     2     2     1.47398639    -0.26495836  -684.84690048    -0.00000006    -0.00000004  0.20D-07  0.56D-08   469.09
   94     1     1     1.17364042    -0.27763827  -684.95591626     0.00000000    -0.00000000  0.63D-09  0.16D-09   473.95
   94     2     2     1.47484783    -0.26495842  -684.84690054    -0.00000006    -0.00000004  0.17D-07  0.47D-08   473.95
   95     1     1     1.17364039    -0.27763827  -684.95591626    -0.00000000    -0.00000000  0.63D-09  0.16D-09   478.84
   95     2     2     1.47549154    -0.26495846  -684.84690058    -0.00000005    -0.00000003  0.17D-07  0.31D-08   478.84
   96     1     1     1.17364031    -0.27763827  -684.95591626    -0.00000000    -0.00000000  0.63D-09  0.16D-09   483.76
   96     2     2     1.47618938    -0.26495850  -684.84690062    -0.00000004    -0.00000002  0.98D-08  0.44D-08   483.76
   97     1     1     1.17364062    -0.27763827  -684.95591626    -0.00000000    -0.00000000  0.63D-09  0.15D-09   488.71
   97     2     2     1.47678720    -0.26495854  -684.84690066    -0.00000004    -0.00000002  0.10D-07  0.35D-08   488.71
   98     1     1     1.17364043    -0.27763827  -684.95591626    -0.00000000    -0.00000000  0.63D-09  0.15D-09   493.60
   98     2     2     1.47765698    -0.26495858  -684.84690070    -0.00000004    -0.00000003  0.13D-07  0.37D-08   493.60
   99     1     1     1.17364043    -0.27763827  -684.95591626     0.00000000    -0.00000000  0.63D-09  0.15D-09   498.54
   99     2     2     1.47837375    -0.26495862  -684.84690074    -0.00000004    -0.00000002  0.11D-07  0.32D-08   498.54
  100     1     1     1.17364041    -0.27763827  -684.95591626    -0.00000000    -0.00000000  0.63D-09  0.16D-09   503.40
  100     2     2     1.47890918    -0.26495865  -684.84690077    -0.00000003    -0.00000002  0.12D-07  0.21D-08   503.40
  101     1     1     1.17364031    -0.27763827  -684.95591626    -0.00000000    -0.00000000  0.63D-09  0.15D-09   508.23
  101     2     2     1.47948210    -0.26495867  -684.84690080    -0.00000003    -0.00000002  0.66D-08  0.29D-08   508.23


 =====================================
 Analysis of CPU times by interactions
 =====================================

       I      S      P

 I   0.1%
 S   0.1%   1.9%
 P   0.5%   9.0%  46.9%

 Initialization:   0.0%
 Other:           41.4%

 Total CPU:      508.2 seconds
 =====================================



 gnormi=  0.85204981  gnorms=  0.08870977  gnormp=  0.05924043  gnorm=  1.00000000
 ecorri= -0.23656163  ecorrs= -0.02462856  ecorrp= -0.01644807  ecorr= -0.27763827

 gnormi=  0.67591220  gnorms=  0.26018344  gnormp=  0.06390436  gnorm=  1.00000000
 ecorri= -0.17908880  ecorrs= -0.06894328  ecorrp= -0.01692659  ecorr= -0.26495867

 Wavefunction saved on  7620.2

 Reference coefficients greater than 0.0500000
 =============================================
 22002/2\           0.9042618  -0.1266734
 2220/02\          -0.0317541  -0.5577700
 22202/\0           0.0317541   0.5577698
 20202/2\          -0.1402716   0.0731674
 2/\02/2\           0.0075211  -0.1349506
 2200/22\           0.0348525   0.0526329
 22002/\2          -0.0348525  -0.0526329

 Coefficients of singly external configurations greater than 0.0500000
 =====================================================================

 22\02020   1.4    -0.1434579  -0.3898456
 22\02020   2.4     0.0965941   0.2097801
 22\02020   3.4     0.0989922   0.0974264
 22\02020   4.4     0.0309483   0.0646891

 Coefficients of fixed reference functions:
 ==========================================

 State      Coefficients
 1           0.922273   -0.002548
 2          -0.089316    0.816124

 Coefficients of rotated reference functions:
 ============================================

 State      Coefficients
 1           0.920999   -0.048521
 2          -0.048521    0.819562


 RESULTS FOR STATE 1.4
 =====================

 Coefficient of reference function:   C(0) = 0.92227289 (fixed)   0.92306544 (relaxed)   0.92099919 (rotated)

 Energy contributions of configuration classes

 CLASS          SQ.NORM        ECORR1        ECORR2
 +++++++++++++++++++++++++++++++++++++++++++++++++++
 Internals    0.00449200   -0.00025269   -0.16256587
 Singles      0.10458104   -0.08890833   -0.10004413
 Pairs        0.06983927    0.00167382   -0.01502827
 Total        1.17891231   -0.08748721   -0.27763827
 +++++++++++++++++++++++++++++++++++++++++++++++++++


 Reference energy                    -684.67803860
 Nuclear energy                       105.83544218
 Kinetic energy                       691.63071119
 One electron energy                -1154.30661479
 Two electron energy                  363.51525635
 Virial quotient                       -0.99034919
 Correlation energy                    -0.27787767
 !MRCI STATE 1.4 Energy              -684.955916261052

 Properties without orbital relaxation:

 !MRCI STATE 1.4 Dipole moment          0.00000000     0.00000000     0.77759989
 Dipole moment /Debye                   0.00000000     0.00000000     1.97646177

 Cluster corrected energies          -685.00563200 (Davidson, fixed reference)
 Cluster corrected energies          -685.00416702 (Davidson, relaxed reference)
 Cluster corrected energies          -685.00563200 (Davidson, rotated reference)

 Cluster corrected energies          -685.00018901 (Pople, fixed reference)
 Cluster corrected energies          -684.99875019 (Pople, relaxed reference)
 Cluster corrected energies          -685.00018901 (Pople, rotated reference)



 RESULTS FOR STATE 2.4
 =====================

 Coefficient of reference function:   C(0) = 0.81612419 (fixed)   0.82213880 (relaxed)   0.81956190 (rotated)

 Energy contributions of configuration classes

 CLASS          SQ.NORM        ECORR1        ECORR2
 +++++++++++++++++++++++++++++++++++++++++++++++++++
 Internals    0.00629835   -0.00028396   -0.00218757
 Singles      0.38736120   -0.08071359   -0.12315713
 Pairs        0.09514084   -0.18265703   -0.13961398
 Total        1.48880039   -0.26365458   -0.26495867
 +++++++++++++++++++++++++++++++++++++++++++++++++++


 Reference energy                    -684.58218152
 Nuclear energy                       105.83544218
 Kinetic energy                       692.33294948
 One electron energy                -1154.07009278
 Two electron energy                  363.38774980
 Virial quotient                       -0.98918721
 Correlation energy                    -0.26471928
 !MRCI STATE 2.4 Energy              -684.846900795137

 Properties without orbital relaxation:

 !MRCI STATE 2.4 Dipole moment          0.00000000     0.00000000     1.10384811
 Dipole moment /Debye                   0.00000000     0.00000000     2.80570204

 Cluster corrected energies          -684.97629568 (Davidson, fixed reference)
 Cluster corrected energies          -684.97382895 (Davidson, relaxed reference)
 Cluster corrected energies          -684.97629568 (Davidson, rotated reference)

 Cluster corrected energies          -684.98360860 (Pople, fixed reference)
 Cluster corrected energies          -684.98039190 (Pople, relaxed reference)
 Cluster corrected energies          -684.98360860 (Pople, rotated reference)


 !MRCI trans          <2.4|DMZ|1.4>    -0.182820882100 au =    -0.464684332305 Debye


 **********************************************************************************************************************************
 DATASETS  * FILE   NREC   LENGTH (MB)   RECORD NAMES
              1      21      603.53       500      700      610      701      900      950      970     1000      129      960   
                                          VAR     GEOM    BASINP    GEOM    SYMINP    ZMAT    AOBASIS   BASIS     P2S    ABASIS    
                                         1100     1400     1410     1200     1210     1080     1600     1650     1300     1700   
                                           S        T        V       H0       H01     AOSYM     SMH    MOLCAS    ERIS     OPER   
                                         1380   
                                         JKOP   

              2      11       58.28       500      610      700     1000      520     2100     2140      701     2140(1)  8620   
                                          VAR    BASINP    GEOM     BASIS   MCVARS     RHF     MCSCF    GEOM     MCSCF    MRCI   
                                         7620   
                                         MRCI   

 PROGRAMS   *        TOTAL        CI        CI     MULTI       INT   RESTART
 CPU TIMES  *       657.53    508.45    105.95      5.81     37.22      0.01
 REAL TIME  *       685.93 SEC
 DISK USED  *         1.83 GB
 **********************************************************************************************************************************


 PROGRAM * CI (Multireference internally contracted CI)     Authors: H.-J. Werner, P.J. Knowles, 1987


   ******************************
   *** Spin-orbit calculation ***
   ******************************


   Spin-orbit matrix elements
   ==========================

  
 Preparing effective Fock matrices
  
 Total X Y Z Fock matrices evaluated:     0    0    0
  
 ? Error
 ? Unknown operator:LS
 ? The problem occurs in Prpdrv

 GLOBAL ERROR fehler on processor   0                                         
