
 Working directory              : /tmp/molpro/molpro.RV30EkEgJw/
 Global scratch directory       : /tmp/molpro/molpro.RV30EkEgJw/
 Wavefunction directory         : /home/molpro/wfu/
 Main file repository           : /tmp/molpro/molpro.RV30EkEgJw/

 id        : gskim

 Nodes                nprocs
 localhost.localdomain    1
 GA implementation: MPI file
 GA implementation (serial work in mppx): MPI file

 Using customized tuning parameters: mindgm=1; mindgv=20; mindgc=4; mindgr=1; noblas=0; minvec=7
 default implementation of scratch files=df  


 Variables initialized (1009), CPU time= 0.01 sec
 ***,The CI for SiS   1sig-  excited states
 file,2,sis-1sigm2b.wfu
 memory,1000,M
 geometry={angstrom;
 Si
 S,Si,r(i)}
 basis=av5z
 r=[2.25,2.24,2.23,2.22,2.21,2.20,2.19,2.18,2.17,2.16,2.15,2.14,2.13,2.12,2.112,2.10,2.09,2.08,2.07,2.06,2.05,2.04,2.03,2.02,2.01,2.00,1.99,1.98,1.97,1.96,1.957,1.95,1.94,1.93,1.92,1.91,1.90,1.89,1.88,1.87,1.86,1.85,1.84,1.83,1.82,1.81,1.80,1.79,1.78,1.77,1.76,1.75,1.74,1.73,1.72,1.71,1.70,1.69,1.68,1.67,1.66,1.65,1.64,1.63,1.62,1.61,1.60,1.59,1.58,1.57,1.56,1.55,1.54,1.53,1.52,1.51,1.50,1.49,1.48,1.47,1.46,1.45,1.44,1.43,1.42,1.41,1.40,1.395,1.39,1.385,1.38,1.375,1.37,1.365,1.36,1.355,1.35,1.345,1.34,1.335,1.33,1.325,1.32,1.315,1.31,1.305,1.30,1.295,1.29,1.285,1.28,1.275,1.27,1.265,1.26,1.255,1.25,1.245,1.24,1.235,1.23,1.225,1.22,1.215,1.21,1.205,1.20,1.195,1.19,1.185,1.18,1.175,1.17,1.165,1.16,1.155,1.15,1.145,1.14,1.135,1.13,1.125,1.12]
 
 do i=1,#r
 int;
 
 
 Text,CASSCF, state averaged orbitals for 1sig- state
 
 {multi;occ,10,4,4;close,6,2,2;start,2130.2;orbital,2140.2;natorb,,ci;wf,30,4,0;state,3;maxiter,40;}
 {ci;occ,10,4,4;core,6,2,2;wf,30,4,0;state,2;maxiter,250;option,maxiti=250;option,nstati=3;orbital,ignore_error=1;}
 
 
 e1(i)=energy(1)
 e2(i)=energy(2)
 
 
 enddo
 
 table,r,e1,e2
 
 
 Commands initialized (810), CPU time= 0.00 sec, 661 directives.
 Default parameters read. Elapsed time= 0.05 sec

 Checking input...
 Passed
1


                                         ***  PROGRAM SYSTEM MOLPRO  ***
                                       Copyright, TTI GmbH Stuttgart, 2015
                                    Version 2021.2 linked Jul 16 2021 07:37:36


 **********************************************************************************************************************************
 LABEL *   The CI for SiS   1sig-  excited states                                        
  64 bit serial version                                                                  DATE: 08-Oct-24          TIME: 02:49:23  
 **********************************************************************************************************************************

 SHA1:             dade016a989826d9d859d6207854b99675d53db3
 **********************************************************************************************************************************

 Memory per process:      1000 MW
 Total memory per node:   1000 MW

 GA preallocation disabled
 GA check disabled

 Variable memory set to 1000.0 MW



 Permanent file  2  sis-1sigm2b.wfu  assigned.  Implementation=df    Size= 17.56 MB


 PROGRAM * RESTART 


 Reading variables from file 2

 _FNUC           =      0.00000000
 _BASIS          =    AV5Z
 _NELEC          =     30.00000000
 _PROGRAM        =    CI
 _DMX(2)         =      0.00000000
 _DMY(2)         =      0.00000000
 _DMZ(1:2)       =     -0.35147116    -0.39660089
 _DMX_SCF        =      0.00000000
 _DMY_SCF        =      0.00000000
 _DMZ_SCF        =     -1.63850912
 _HOMO           =      3.30000000
 _EHOMO          =     -0.34893237
 _LUMO           =      4.20000000
 _ELUMO          =     -0.01423239
 _ENERGD(1:2)    =   -686.70954177  -686.70786138
 _ENERGD0(1:2)   =   -686.70954177  -686.70786138
 _ENERGD1(1:2)   =   -686.70983111  -686.70807877
 _ENERGD2(1:2)   =   -686.70983111  -686.70807877
 _ENERGD3(1:2)   =   -686.70954177  -686.70786138
 _ENERGD4(1:2)   =   -686.70983111  -686.70807877
 _ENERGP(1:2)    =   -686.70559832  -686.70397406
 _ENERGP0(1:2)   =   -686.70559832  -686.70397406
 _ENERGP1(1:2)   =   -686.70586446  -686.70417360
 _ENERGP2(1:2)   =   -686.70586446  -686.70417360
 _ENERGP3(1:2)   =   -686.70559832  -686.70397406
 _ENERGP4(1:2)   =   -686.70586446  -686.70417360
 _ENERGR(1:2)    =   -686.44504051  -686.44475305
 _ENERGRR(1:2)   =   -686.44475305  -686.44504051
 _ENERGY(1:2)    =   -686.68165202  -686.68053787
 _ENERGY_METHOD  =    CI
 _ENERGY_BASIS   =    aug-cc-pV5Z
 _ENERGY_AVRG    =   -686.38180000
 _ENUC           =     52.68253122
 _IPROC_MPP      =      0.00000000
 _IPROC_MPPX     =      0.00000000
 _ORBITAL        =   2140.20000000
 _ROOT(1:2)      =      1.00000000     2.00000000
 _STATUS         =      1.00000000
 _TROV           =     -0.00000000
 _DATE           =    05-Oct-24
 _LASTORB        =    MCSCF
 _OUTPUT         =    /home/molpro/SiS-3oct2024/dir-2/sis-1sigm2mc.out
 _PGROUP         =    C2v 
 _TIME           =    04:14:10
 _C0(1:2)        =      0.89467169     0.89603753
 _C0R(1:2)       =      0.89369512     0.89529697
 _DMX_CC(1:3)    =     -0.00000000    -0.00000000    -0.00000000
 _DMY_CC(1:3)    =     -0.00000000    -0.00000000    -0.00000000
 _DMZ_CC(1:3)    =      2.81030360     2.81030360     2.81030360
 _DMX_NUC(1:3)   =      0.00000000     0.00000000     0.00000000
 _DMY_NUC(1:3)   =      0.00000000     0.00000000     0.00000000
 _DMZ_NUC(1:3)   =      0.03732606     0.03732606     0.03732606
 _SYM_CATION     =      3.00000000
 R               =      2.25000000
 _TRDMX          =     -0.00000000
 _TRDMY          =     -0.00000000
 _TRDMZ          =     -0.00000034

 Geometry written to block  1 of record 700


 **********************************************************************************************************************************
 DATASETS  * FILE   NREC   LENGTH (MB)   RECORD NAMES
              2       7       17.56       500      610      700     1000      520     2100     2140   
                                          VAR    BASINP    GEOM     BASIS   MCVARS     RHF     MCSCF   

 PROGRAMS   *        TOTAL   RESTART
 CPU TIMES  *         0.09      0.01
 REAL TIME  *         0.11 SEC
 DISK USED  *        29.03 MB
 **********************************************************************************************************************************
 SETTING BASIS          =    AV5Z
 SETTING R(1)           =         2.25000000                                  
 SETTING R(2)           =         2.24000000                                  
 SETTING R(3)           =         2.23000000                                  
 SETTING R(4)           =         2.22000000                                  
 SETTING R(5)           =         2.21000000                                  
 SETTING R(6)           =         2.20000000                                  
 SETTING R(7)           =         2.19000000                                  
 SETTING R(8)           =         2.18000000                                  
 SETTING R(9)           =         2.17000000                                  
 SETTING R(10)          =         2.16000000                                  
 SETTING R(11)          =         2.15000000                                  
 SETTING R(12)          =         2.14000000                                  
 SETTING R(13)          =         2.13000000                                  
 SETTING R(14)          =         2.12000000                                  
 SETTING R(15)          =         2.11200000                                  
 SETTING R(16)          =         2.10000000                                  
 SETTING R(17)          =         2.09000000                                  
 SETTING R(18)          =         2.08000000                                  
 SETTING R(19)          =         2.07000000                                  
 SETTING R(20)          =         2.06000000                                  
 SETTING R(21)          =         2.05000000                                  
 SETTING R(22)          =         2.04000000                                  
 SETTING R(23)          =         2.03000000                                  
 SETTING R(24)          =         2.02000000                                  
 SETTING R(25)          =         2.01000000                                  
 SETTING R(26)          =         2.00000000                                  
 SETTING R(27)          =         1.99000000                                  
 SETTING R(28)          =         1.98000000                                  
 SETTING R(29)          =         1.97000000                                  
 SETTING R(30)          =         1.96000000                                  
 SETTING R(31)          =         1.95700000                                  
 SETTING R(32)          =         1.95000000                                  
 SETTING R(33)          =         1.94000000                                  
 SETTING R(34)          =         1.93000000                                  
 SETTING R(35)          =         1.92000000                                  
 SETTING R(36)          =         1.91000000                                  
 SETTING R(37)          =         1.90000000                                  
 SETTING R(38)          =         1.89000000                                  
 SETTING R(39)          =         1.88000000                                  
 SETTING R(40)          =         1.87000000                                  
 SETTING R(41)          =         1.86000000                                  
 SETTING R(42)          =         1.85000000                                  
 SETTING R(43)          =         1.84000000                                  
 SETTING R(44)          =         1.83000000                                  
 SETTING R(45)          =         1.82000000                                  
 SETTING R(46)          =         1.81000000                                  
 SETTING R(47)          =         1.80000000                                  
 SETTING R(48)          =         1.79000000                                  
 SETTING R(49)          =         1.78000000                                  
 SETTING R(50)          =         1.77000000                                  
 SETTING R(51)          =         1.76000000                                  
 SETTING R(52)          =         1.75000000                                  
 SETTING R(53)          =         1.74000000                                  
 SETTING R(54)          =         1.73000000                                  
 SETTING R(55)          =         1.72000000                                  
 SETTING R(56)          =         1.71000000                                  
 SETTING R(57)          =         1.70000000                                  
 SETTING R(58)          =         1.69000000                                  
 SETTING R(59)          =         1.68000000                                  
 SETTING R(60)          =         1.67000000                                  
 SETTING R(61)          =         1.66000000                                  
 SETTING R(62)          =         1.65000000                                  
 SETTING R(63)          =         1.64000000                                  
 SETTING R(64)          =         1.63000000                                  
 SETTING R(65)          =         1.62000000                                  
 SETTING R(66)          =         1.61000000                                  
 SETTING R(67)          =         1.60000000                                  
 SETTING R(68)          =         1.59000000                                  
 SETTING R(69)          =         1.58000000                                  
 SETTING R(70)          =         1.57000000                                  
 SETTING R(71)          =         1.56000000                                  
 SETTING R(72)          =         1.55000000                                  
 SETTING R(73)          =         1.54000000                                  
 SETTING R(74)          =         1.53000000                                  
 SETTING R(75)          =         1.52000000                                  
 SETTING R(76)          =         1.51000000                                  
 SETTING R(77)          =         1.50000000                                  
 SETTING R(78)          =         1.49000000                                  
 SETTING R(79)          =         1.48000000                                  
 SETTING R(80)          =         1.47000000                                  
 SETTING R(81)          =         1.46000000                                  
 SETTING R(82)          =         1.45000000                                  
 SETTING R(83)          =         1.44000000                                  
 SETTING R(84)          =         1.43000000                                  
 SETTING R(85)          =         1.42000000                                  
 SETTING R(86)          =         1.41000000                                  
 SETTING R(87)          =         1.40000000                                  
 SETTING R(88)          =         1.39500000                                  
 SETTING R(89)          =         1.39000000                                  
 SETTING R(90)          =         1.38500000                                  
 SETTING R(91)          =         1.38000000                                  
 SETTING R(92)          =         1.37500000                                  
 SETTING R(93)          =         1.37000000                                  
 SETTING R(94)          =         1.36500000                                  
 SETTING R(95)          =         1.36000000                                  
 SETTING R(96)          =         1.35500000                                  
 SETTING R(97)          =         1.35000000                                  
 SETTING R(98)          =         1.34500000                                  
 SETTING R(99)          =         1.34000000                                  
 SETTING R(100)         =         1.33500000                                  
 SETTING R(101)         =         1.33000000                                  
 SETTING R(102)         =         1.32500000                                  
 SETTING R(103)         =         1.32000000                                  
 SETTING R(104)         =         1.31500000                                  
 SETTING R(105)         =         1.31000000                                  
 SETTING R(106)         =         1.30500000                                  
 SETTING R(107)         =         1.30000000                                  
 SETTING R(108)         =         1.29500000                                  
 SETTING R(109)         =         1.29000000                                  
 SETTING R(110)         =         1.28500000                                  
 SETTING R(111)         =         1.28000000                                  
 SETTING R(112)         =         1.27500000                                  
 SETTING R(113)         =         1.27000000                                  
 SETTING R(114)         =         1.26500000                                  
 SETTING R(115)         =         1.26000000                                  
 SETTING R(116)         =         1.25500000                                  
 SETTING R(117)         =         1.25000000                                  
 SETTING R(118)         =         1.24500000                                  
 SETTING R(119)         =         1.24000000                                  
 SETTING R(120)         =         1.23500000                                  
 SETTING R(121)         =         1.23000000                                  
 SETTING R(122)         =         1.22500000                                  
 SETTING R(123)         =         1.22000000                                  
 SETTING R(124)         =         1.21500000                                  
 SETTING R(125)         =         1.21000000                                  
 SETTING R(126)         =         1.20500000                                  
 SETTING R(127)         =         1.20000000                                  
 SETTING R(128)         =         1.19500000                                  
 SETTING R(129)         =         1.19000000                                  
 SETTING R(130)         =         1.18500000                                  
 SETTING R(131)         =         1.18000000                                  
 SETTING R(132)         =         1.17500000                                  
 SETTING R(133)         =         1.17000000                                  
 SETTING R(134)         =         1.16500000                                  
 SETTING R(135)         =         1.16000000                                  
 SETTING R(136)         =         1.15500000                                  
 SETTING R(137)         =         1.15000000                                  
 SETTING R(138)         =         1.14500000                                  
 SETTING R(139)         =         1.14000000                                  
 SETTING R(140)         =         1.13500000                                  
 SETTING R(141)         =         1.13000000                                  
 SETTING R(142)         =         1.12500000                                  
 SETTING R(143)         =         1.12000000                                  

 DO I                   =         1.00000000   


 Using spherical harmonics

 Library entry SI     S aug-cc-pV5Z          selected for orbital group  1
 Library entry SI     P aug-cc-pV5Z          selected for orbital group  1
 Library entry SI     D aug-cc-pV5Z          selected for orbital group  1
 Library entry SI     F aug-cc-pV5Z          selected for orbital group  1
 Library entry SI     G aug-cc-pV5Z          selected for orbital group  1
 Library entry SI     H aug-cc-pV5Z          selected for orbital group  1
 Library entry S      S aug-cc-pV5Z          selected for orbital group  2
 Library entry S      P aug-cc-pV5Z          selected for orbital group  2
 Library entry S      D aug-cc-pV5Z          selected for orbital group  2
 Library entry S      F aug-cc-pV5Z          selected for orbital group  2
 Library entry S      G aug-cc-pV5Z          selected for orbital group  2
 Library entry S      H aug-cc-pV5Z          selected for orbital group  2


 PROGRAM * SEWARD (Integral evaluation for generally contracted gaussian basis sets)     Author: Roland Lindh, 1990

 Geometry written to block  1 of record 701

 Orientation using atomic masses  
 Molecule type: Linear
 Symmetry elements: X,Y
 Rotational constants:       6.6682153      6.6682153      0.0000000 GHz  (calculated with average atomic masses)

 Point group  C2v 



 ATOMIC COORDINATES

 NR  ATOM    CHARGE       X              Y              Z

   1  SI     14.00    0.000000000    0.000000000   -2.266427147
   2  S      16.00    0.000000000    0.000000000    1.985456633

 Bond lengths in Bohr (Angstrom)

 1-2  4.251883780
     ( 2.250000000)

 NUCLEAR CHARGE:                   30
 NUMBER OF PRIMITIVE AOS:         434
 NUMBER OF SYMMETRY AOS:          324
 NUMBER OF CONTRACTIONS:          262   (   96A1  +   64B1  +   64B2  +   38A2  )
 NUMBER OF INNER CORE ORBITALS:     2   (    2A1  +    0B1  +    0B2  +    0A2  )
 NUMBER OF OUTER CORE ORBITALS:     8   (    4A1  +    2B1  +    2B2  +    0A2  )
 NUMBER OF VALENCE ORBITALS:        8   (    4A1  +    2B1  +    2B2  +    0A2  )


 NUCLEAR REPULSION ENERGY   52.68253122

 EXTRA SYMMETRY OF AOS IN SYMMETRY 1:   1 1 1 1 1 1 1 1 1 1   1 1 1 1 1 1 2 1 2 1   2 1 2 1 2 1 2 1 2 1   2 1 2 1 3 2 1 3 2 1
                                        3 2 2 3 1 2 3 1 1 1   1 1 1 1 1 1 1 1 1 1   1 1 1 1 2 1 2 1 2 1   2 1 2 1 2 1 2 1 2 1
                                        2 1 3 2 1 3 2 1 3 2   2 3 1 2 3 1
 EXTRA SYMMETRY OF AOS IN SYMMETRY 2:   1 1 1 1 1 1 1 1 1 1   1 1 1 2 1 2 1 2 1 2   1 2 1 2 1 2 1 2 3 1   2 3 1 1 1 1 1 1 1 1
                                        1 1 1 1 1 2 1 2 1 2   1 2 1 2 1 2 1 2 1 2   3 1 2 3
 EXTRA SYMMETRY OF AOS IN SYMMETRY 3:   1 1 1 1 1 1 1 1 1 1   1 1 1 2 1 2 1 2 1 2   1 2 1 2 1 2 1 2 3 1   2 3 1 1 1 1 1 1 1 1
                                        1 1 1 1 1 2 1 2 1 2   1 2 1 2 1 2 1 2 1 2   3 1 2 3
 EXTRA SYMMETRY OF AOS IN SYMMETRY 4:   1 1 1 1 1 1 1 1 1 1   2 1 2 1 2 2 1 2 1 1   1 1 1 1 1 1 1 1 1 2   1 2 1 2 2 1 2 1

 Eigenvalues of metric

         1 0.778E-05 0.862E-05 0.197E-04 0.265E-04 0.520E-04 0.357E-03 0.503E-03 0.144E-02
         2 0.904E-05 0.108E-04 0.412E-03 0.247E-02 0.828E-02 0.131E-01 0.263E-01 0.328E-01
         3 0.904E-05 0.108E-04 0.412E-03 0.247E-02 0.828E-02 0.131E-01 0.263E-01 0.328E-01
         4 0.612E-02 0.190E-01 0.412E-01 0.580E-01 0.654E-01 0.736E-01 0.105E+00 0.145E+00


 Contracted 2-electron integrals neglected if value below      1.0D-12
 AO integral compression algorithm  1   Integral accuracy      1.0D-12

     622.854 MB (compressed) written to integral file ( 42.9%)


 NUMBER OF SORTED TWO-ELECTRON INTEGRALS:  150955559.     BUFFER LENGTH:  32768
 NUMBER OF SEGMENTS:  10  SEGMENT LENGTH:   15998976      RECORD LENGTH: 524288

 Memory used in sort:      16.56 MW

 SORT1 READ   181316810. AND WROTE   100522940. INTEGRALS IN    293 RECORDS. CPU TIME:     1.93 SEC, REAL TIME:     2.34 SEC
 SORT2 READ   100522940. AND WROTE   150955559. INTEGRALS IN   2376 RECORDS. CPU TIME:     1.42 SEC, REAL TIME:     1.68 SEC

 FILE SIZES:   FILE 1:   654.5 MBYTE,  FILE 4:  1229.0 MBYTE,   TOTAL:   1883.5 MBYTE

 OPERATOR DM      FOR CENTER  0  COORDINATES:    0.000000    0.000000    0.000000


 **********************************************************************************************************************************
 DATASETS  * FILE   NREC   LENGTH (MB)   RECORD NAMES
              1      20      510.70       500      700      610      701      900      950      970     1000      129      960   
                                          VAR     GEOM    BASINP    GEOM    SYMINP    ZMAT    AOBASIS   BASIS     P2S    ABASIS    
                                         1100     1400     1410     1200     1210     1080     1600     1650     1300     1700   
                                           S        T        V       H0       H01     AOSYM     SMH    MOLCAS    ERIS     OPER   

              2       8       18.09       500      610      700     1000      520     2100     2140      701   
                                          VAR    BASINP    GEOM     BASIS   MCVARS     RHF     MCSCF    GEOM   

 PROGRAMS   *        TOTAL       INT   RESTART
 CPU TIMES  *        32.92     32.82      0.01
 REAL TIME  *        34.08 SEC
 DISK USED  *         1.77 GB
 **********************************************************************************************************************************

 PROGRAM * MULTI (Direct Multiconfiguration SCF)       Authors: P.J. Knowles, H.-J. Werner (1984)
                                                                D.A. Kreplin, P.J. Knowles, H.-J. Werner (2019)

 Number of closed-shell orbitals:  10 (   6   2   2   0 )
 Number of active  orbitals:        8 (   4   2   2   0 )
 Number of external orbitals:     244 (  86  60  60  38 )

 State symmetry 1

 Number of active electrons:  10    Spin symmetry=Singlet   Space symmetry=4
 Number of states:             3
 Number of CSFs:             272   (776 determinants, 3136 intermediate states)

 Molecular orbitals read from record     2140.2  Type=MCSCF/NATURAL (state averaged)

 EXTRA SYMMETRY OF MOS IN SYMMETRY 1:   1 1 1 1 1 1 1 1 1 1   1 1 1 2 1 1 1 2 1 2   1 1 2 1 1 1 2 2 1 3   1 2 1 2 1 2 1 3 1 1
                                        2 2 1 1 2 1 2 1 3 3   1 2 1 1 2 2 1 1 2 3   3 1 2 1 2 1 2 1 1 2   1 3 3 2 1 1 2 1 1 2
                                        1 3 2 1 3 2 2 1 1 1   2 1 1 1 1 1
 EXTRA SYMMETRY OF MOS IN SYMMETRY 2:   1 1 1 1 1 1 1 1 2 1   1 1 1 2 1 1 2 2 1 1   1 1 2 2 1 1 1 2 1 3   2 1 1 2 1 2 1 3 2 1
                                        1 2 1 2 1 1 1 1 2 3   2 1 1 2 1 2 3 2 1 1   1 1 1 1
 EXTRA SYMMETRY OF MOS IN SYMMETRY 3:   1 1 1 1 1 1 1 1 2 1   1 1 1 2 1 1 2 2 1 1   1 1 2 2 1 1 1 2 1 3   2 1 1 2 1 2 1 3 2 1
                                        1 2 1 2 1 1 1 1 2 3   2 1 1 2 1 2 3 2 1 1   1 1 1 1
 EXTRA SYMMETRY OF MOS IN SYMMETRY 4:   1 1 1 1 1 1 2 1 1 1   2 1 1 1 1 2 2 1 1 1   1 2 2 1 1 1 1 2 2 1   1 1 2 1 2 1 1 1

 Wavefunction dump at record             2140.2

 Convergence thresholds  0.10E-04 (gradient)  0.10E-05 (energy)

 Weight factors for state symmetry  1:    0.33333   0.33333   0.33333
 
 Number of orbital rotations:  1372  ( 32 closed/active, 756 closed/virtual, 0 active/active, 584 active/virtual )
 Total number of variables:    3700
 
  Second-order MCSCF: L-BFGS accelerated
 
 ITER  MIC  NCI  NEG     ENERGY(VAR)    ENERGY(PROJ) ENERGY CHANGE       GRAD(0)  GRAD(ORB)   GRAD(CI)      STEP      TIME
   1   10   22    0   -686.38180000    -686.38180000   -0.00000000    0.00001268 0.00000001 0.00000001  0.49E-07      1.27

 CONVERGENCE REACHED!  Final gradient:    0.00000002 ( 0.17E-07)
                       Final energy:   -686.38180000
 
 Results for state 1.4
 =====================
 !MCSCF STATE 1.4 Energy                      -686.445040508874
 Nuclear energy                                 52.68253122
 Kinetic energy                                686.54751908
 One electron energy                         -1055.61665669
 Two electron energy                           316.48908497
 Virial ratio                                    1.99985073
 
 !MCSCF STATE 1.4 Dipole moment                  0.00000000     0.00000000    -0.38502160
 Dipole moment /Debye                            0.00000000     0.00000000    -0.97862729
 
 Results for state 2.4
 =====================
 !MCSCF STATE 2.4 Energy                      -686.444753046947
 Nuclear energy                                 52.68253122
 Kinetic energy                                686.54123639
 One electron energy                         -1055.60250582
 Two electron energy                           316.47522155
 Virial ratio                                    1.99985946
 
 !MCSCF STATE 2.4 Dipole moment                  0.00000000     0.00000000    -0.35142764
 Dipole moment /Debye                            0.00000000     0.00000000    -0.89323997
 
 Results for state 3.4
 =====================
 !MCSCF STATE 3.4 Energy                      -686.255606432707
 Nuclear energy                                 52.68253122
 Kinetic energy                                686.09419599
 One electron energy                         -1054.18250496
 Two electron energy                           315.24436731
 Virial ratio                                    2.00023526
 
 !MCSCF STATE 3.4 Dipole moment                  0.00000000     0.00000000    -0.28228345
 Dipole moment /Debye                            0.00000000     0.00000000    -0.71749295
 
 State-averaged charge density matrix saved on record 2140.2 (density set 1)
 
 Expectation values: (only non-zero values are shown)
 
 !MCSCF expec                       <1.4|DMZ|1.4>    -0.385021596994 au =    -0.978627286263 Debye
 !MCSCF expec                       <2.4|DMZ|2.4>    -0.351427643237 au =    -0.893239972780 Debye
 !MCSCF expec                       <3.4|DMZ|3.4>    -0.282283446091 au =    -0.717492953543 Debye
 
 Transition values: (only non-zero values with the ground state are shown)
 
 !MCSCF trans                       <1.4|DMZ|3.4>     0.089126752775 au =     0.226537609534 Debye
 
 
 Natural orbital dump (state averaged) at molpro section 2140.2 (Orbital set 2)
 
 Reoptimze the CI vectors with natural orbitals 
 
 CI Coefficients of symmetry 4
 =============================
 
 2200 2b 2a      0.01021448     -0.00000000     -0.66585305
 2200 2a 2b     -0.01021448      0.00000000      0.66585305
 2220 b0 2a      0.48793541     -0.48891373      0.01426812
 2220 a0 2b     -0.48793541      0.48891373     -0.01426812
 2220 2b a0      0.48793541      0.48891373      0.01426812
 2220 2a b0     -0.48793541     -0.48891373     -0.01426812
 2020 2b 2a      0.02424764     -0.00000000      0.12019299
 2020 2a 2b     -0.02424764      0.00000000     -0.12019299
 2220 2b 0a     -0.01970352     -0.00876383      0.09030657
 2220 2a 0b      0.01970352      0.00876383     -0.09030657
 2220 0b 2a     -0.01970352      0.00876383      0.09030657
 2220 0a 2b      0.01970352     -0.00876383     -0.09030657
 2ba0 2b a2     -0.03357489     -0.03424399      0.05411475
 2ab0 b2 2a      0.03357489     -0.03424399     -0.05411475
 2ba0 a2 2b      0.03357489     -0.03424399     -0.05411475
 2ab0 2a b2     -0.03357489     -0.03424399      0.05411475
 
 Energy:      -686.44504051   -686.44475305   -686.25560643
 


 **********************************************************************************************************************************
 DATASETS  * FILE   NREC   LENGTH (MB)   RECORD NAMES
              1      21      545.80       500      700      610      701      900      950      970     1000      129      960   
                                          VAR     GEOM    BASINP    GEOM    SYMINP    ZMAT    AOBASIS   BASIS     P2S    ABASIS    
                                         1100     1400     1410     1200     1210     1080     1600     1650     1300     1700   
                                           S        T        V       H0       H01     AOSYM     SMH    MOLCAS    ERIS     OPER   
                                         1380   
                                         JKOP   

              2       8       18.09       500      610      700     1000      520     2100     2140      701   
                                          VAR    BASINP    GEOM     BASIS   MCVARS     RHF     MCSCF    GEOM   

 PROGRAMS   *        TOTAL     MULTI       INT   RESTART
 CPU TIMES  *        35.07      2.15     32.82      0.01
 REAL TIME  *        36.50 SEC
 DISK USED  *         1.77 GB
 **********************************************************************************************************************************


 PROGRAM * CI (Multireference internally contracted CI)     Authors: H.-J. Werner, P.J. Knowles, 1987


 Convergence thresholds:  THRVAR = 1.00D-08  THRDEN = 1.00D-06

 Number of optimized states: 2  Roots:    1   2
 Number of reference states: 2  Roots:    1   2

 Program parameters:       NSTATE=  2    NSTATI=  3    NSTATR=  2    NCEPA = -1    NOKOP =  0    ITRDM =  0    ITRANS=  0
                           IDIP  =200    MAXIT =250    MAXITI=250    MAXDAV=  6    MAXVI =  9    NOSING=  0    NOPAIR=  0
                           MXSHRF=  6    IKCPS =  0    IOPTGM=  2    IOPTOR=  0    REFOPT=  1    IAVDEN=  0    IDELCG=  1
                           IREST =  0    NATORB=  0    IPUNRF=  0    ISEP  =  0    OLDDEN=  0    NSTPRI=  1    GPSFLI= -1
                           CLUSTE=  0    CLOSED=  1    ILSTYP=  0    ITRLS =  0    ICCSD =  0    LOCAL =  0    IBASO =  0
                           MP    =  0    ITEDIS=  2    INCDIS=  1    MAXDIS=  6    ITYDIS=  1    BRUECK=  0    IBRSTR=  3
                           INCBRK=  1    TRIPLE=  0    ICCTYP=  1    IHPPD =  0    ICCNEW=  0    I3EXT = -1    IDEB  =  0
                           IDLEIG=  1    IDFTYP=  1    IMP3  =  0    IPROCS=  0    NOINT =  0    NOREF =  1    IMP2G =  0
                           IHINT =  0    IFDIA =  0    ISPARO=  1    JKSYM =  0    CPHF  =  0    MP2D  = -1    DKINT =  0
                           NPKEX =  1    DRVK  =  1    HLSTRA=  1    WIGNER=  1    DIIS_C=  1    MAXIT_= 50    MATEL =  0
                           SPDEG =  1    MEMCPH=  0    DISM  =  1    KDCPMA=  5    IKDCP_=  0    IREDTH=  0    USECS =  0
                           IPROCC=  0    I3SAVE=  1    IKDCP =  1    USECI =  0    OLDPAI=  0    IPROCI=  0    KEEPCL=  1
                           DISCON=  0    SHIFTE=  0    DIISIN=  0    MOLCAS=  0    MEM_PT=  0    RECORD=  0    RS2C  =  0
                           KEXT  = -1    CIPT2 =  0    DECP0S=  0    I4EXT = -1    NATCOR=  0    RIMP2 =  0    DDCI  = -1
                           IPOLAR=  0

 Reference symmetry:                   4   Singlet 
 Number of electrons:                 30
 Maximum number of shells:             6
 Maximum number of spin couplings:    42

 Reference space:      160 conf      272 CSFs
 N elec internal:      784 conf     1176 CSFs
 N-1 el internal:     1012 conf     2348 CSFs
 N-2 el internal:      928 conf     3697 CSFs

 Number of electrons in valence space:                     10
 Maximum number of open shell orbitals in reference space:  6
 Maximum number of open shell orbitals in internal spaces: 10


 Number of core orbitals:          10 (   6   2   2   0 )
 Number of active  orbitals:        8 (   4   2   2   0 )
 Number of external orbitals:     244 (  86  60  60  38 )

 Molecular orbitals read from record     2140.2  Type=MCSCF/NATURAL (state averaged)

 Valence orbitals related to previous ones by unitary transformation. Operators transformed.


 Number of p-space configurations:  15

 Reference wavefunction optimized for reference space (refopt=1)

 State     Reference Energy 
     1      -686.44504051
     2      -686.44475305
     3      -686.25560643

 Number of blocks in overlap matrix:     8   Smallest eigenvalue:  0.22D-02
 Number of N-2 electron functions:     128
 Number of N-1 electron functions:    2348

 Number of internal configurations:                  272
 Number of singly external configurations:        141976
 Number of doubly external configurations:        972960
 Total number of contracted configurations:      1115208
 Total number of uncontracted configurations:   27707036

 Diagonal Coupling coefficients finished.               Storage:  185115 words, CPU-Time:      0.03 seconds.
 Energy denominators for pairs finished in 1 passes.    Storage:  362457 words, CPU-time:      0.02 seconds.

  ITER. STATE  ROOT     SQ.NORM     CORR.ENERGY   TOTAL ENERGY   ENERGY CHANGE       DEN1      VAR(S)    VAR(P)      TIME
    1     1     1     1.00000000     0.00000000  -686.44504051     0.00000000    -0.23728439  0.59D-01  0.55D-01     0.42
    1     2     2     1.00000000     0.00000000  -686.44475305    -0.00000000    -0.23870902  0.61D-01  0.54D-01     0.42
    2     1     1     1.10542491    -0.22870049  -686.67374100    -0.22870049    -0.00641769  0.13D-02  0.14D-02     6.32
    2     2     2     1.10407844    -0.22782793  -686.67258097    -0.22782793    -0.00646357  0.14D-02  0.14D-02     6.32
    3     1     1     1.11426523    -0.23601563  -686.68105614    -0.00731513    -0.00047558  0.11D-03  0.96D-04    12.21
    3     2     2     1.11259624    -0.23518209  -686.67993514    -0.00735417    -0.00048129  0.11D-03  0.98D-04    12.21
    4     1     1     1.11713406    -0.23654741  -686.68158792    -0.00053179    -0.00005269  0.16D-04  0.88D-05    18.10
    4     2     2     1.11544506    -0.23572061  -686.68047366    -0.00053852    -0.00005278  0.16D-04  0.90D-05    18.10
    5     1     1     1.11761927    -0.23660337  -686.68164388    -0.00005596    -0.00000683  0.20D-05  0.10D-05    23.97
    5     2     2     1.11592772    -0.23577706  -686.68053010    -0.00005644    -0.00000652  0.18D-05  0.10D-05    23.97
    6     1     1     1.11766894    -0.23661041  -686.68165092    -0.00000704    -0.00000090  0.27D-06  0.14D-06    29.87
    6     2     2     1.11596949    -0.23578381  -686.68053686    -0.00000675    -0.00000084  0.24D-06  0.13D-06    29.87
    7     1     1     1.11770299    -0.23661133  -686.68165184    -0.00000092    -0.00000015  0.53D-07  0.21D-07    35.71
    7     2     2     1.11600134    -0.23578466  -686.68053771    -0.00000085    -0.00000013  0.46D-07  0.20D-07    35.71
    8     1     1     1.11772306    -0.23661149  -686.68165200    -0.00000015    -0.00000003  0.92D-08  0.32D-08    41.55
    8     2     2     1.11602014    -0.23578480  -686.68053785    -0.00000014    -0.00000002  0.74D-08  0.30D-08    41.55
    9     1     1     1.11772845    -0.23661151  -686.68165202    -0.00000003    -0.00000000  0.18D-08  0.53D-09    47.37
    9     2     2     1.11602468    -0.23578482  -686.68053787    -0.00000002    -0.00000000  0.14D-08  0.50D-09    47.37


 =====================================
 Analysis of CPU times by interactions
 =====================================

       I      S      P

 I   0.1%
 S   0.1%   2.4%
 P   0.5%   8.0%  46.5%

 Initialization:   0.8%
 Other:           41.5%

 Total CPU:       47.4 seconds
 =====================================



 gnormi=  0.89467169  gnorms=  0.05046743  gnormp=  0.05486088  gnorm=  1.00000000
 ecorri= -0.21168962  ecorrs= -0.01194113  ecorrp= -0.01298076  ecorr= -0.23661151

 gnormi=  0.89603753  gnorms=  0.04814979  gnormp=  0.05581268  gnorm=  1.00000000
 ecorri= -0.21127205  ecorrs= -0.01135283  ecorrp= -0.01315994  ecorr= -0.23578482

 Reference coefficients greater than 0.0500000
 =============================================
 22202/\0          -0.6564893   0.6555601
 2220/02\           0.6564893   0.6555601
 2/\02/\2          -0.0557713   0.0554697
 2/\0/22\           0.0557713   0.0554697
 20202/\2           0.0511012  -0.0519435
 2020/22\          -0.0511012  -0.0519435
 2202/02\          -0.0507282  -0.0510267
 22022/\0           0.0507281  -0.0510266

 Coefficients of fixed reference functions:
 ==========================================

 State      Coefficients
 1          -0.000000    0.945354
 2           0.946201    0.000000

 Coefficients of rotated reference functions:
 ============================================

 State      Coefficients
 1           0.945354    0.000000
 2           0.000000    0.946201


 RESULTS FOR STATE 1.4
 =====================

 Maximum overlap with reference state  2

 Coefficient of reference function:   C(0) = 0.94535449 (fixed)   0.94587086 (relaxed)   0.94535449 (rotated)

 Energy contributions of configuration classes

 CLASS          SQ.NORM        ECORR1        ECORR2
 +++++++++++++++++++++++++++++++++++++++++++++++++++
 Internals    0.00109274    0.00000000    0.00002583
 Singles      0.05647052   -0.08131139   -0.08460872
 Pairs        0.06138657   -0.15558759   -0.15202863
 Total        1.11894983   -0.23689897   -0.23661151
 +++++++++++++++++++++++++++++++++++++++++++++++++++


 Reference energy                    -686.44475305
 Nuclear energy                        52.68253122
 Kinetic energy                       686.63270047
 One electron energy                -1055.50038525
 Two electron energy                  316.13620201
 Virial quotient                       -1.00007129
 Correlation energy                    -0.23689897
 !MRCI STATE 1.4 Energy              -686.681652021181

 Properties without orbital relaxation:

 !MRCI STATE 1.4 Dipole moment          0.00000000     0.00000000    -0.35147116
 Dipole moment /Debye                   0.00000000     0.00000000    -0.89335059

 Cluster corrected energies          -686.70983111 (Davidson, fixed reference)
 Cluster corrected energies          -686.70954177 (Davidson, relaxed reference)
 Cluster corrected energies          -686.70983111 (Davidson, rotated reference)

 Cluster corrected energies          -686.70586446 (Pople, fixed reference)
 Cluster corrected energies          -686.70559832 (Pople, relaxed reference)
 Cluster corrected energies          -686.70586446 (Pople, rotated reference)



 RESULTS FOR STATE 2.4
 =====================

 Maximum overlap with reference state  1

 Coefficient of reference function:   C(0) = 0.94620134 (fixed)   0.94659259 (relaxed)   0.94620134 (rotated)

 Energy contributions of configuration classes

 CLASS          SQ.NORM        ECORR1        ECORR2
 +++++++++++++++++++++++++++++++++++++++++++++++++++
 Internals    0.00082717   -0.00000000   -0.14114871
 Singles      0.05378080   -0.07832410   -0.08147616
 Pairs        0.06233985   -0.00000001   -0.01315995
 Total        1.11694782   -0.07832412   -0.23578482
 +++++++++++++++++++++++++++++++++++++++++++++++++++


 Reference energy                    -686.44504051
 Nuclear energy                        52.68253122
 Kinetic energy                       686.63766107
 One electron energy                -1055.50848368
 Two electron energy                  316.14541460
 Virial quotient                       -1.00006244
 Correlation energy                    -0.23549736
 !MRCI STATE 2.4 Energy              -686.680537870578

 Properties without orbital relaxation:

 !MRCI STATE 2.4 Dipole moment          0.00000000     0.00000000    -0.39660089
 Dipole moment /Debye                   0.00000000     0.00000000    -1.00805893

 Cluster corrected energies          -686.70807877 (Davidson, fixed reference)
 Cluster corrected energies          -686.70786138 (Davidson, relaxed reference)
 Cluster corrected energies          -686.70807877 (Davidson, rotated reference)

 Cluster corrected energies          -686.70417360 (Pople, fixed reference)
 Cluster corrected energies          -686.70397406 (Pople, relaxed reference)
 Cluster corrected energies          -686.70417360 (Pople, rotated reference)


 !MRCI trans          <2.4|DMZ|1.4>     0.000000337107 au =     0.000000856842 Debye


 **********************************************************************************************************************************
 DATASETS  * FILE   NREC   LENGTH (MB)   RECORD NAMES
              1      21      545.80       500      700      610      701      900      950      970     1000      129      960   
                                          VAR     GEOM    BASINP    GEOM    SYMINP    ZMAT    AOBASIS   BASIS     P2S    ABASIS    
                                         1100     1400     1410     1200     1210     1080     1600     1650     1300     1700   
                                           S        T        V       H0       H01     AOSYM     SMH    MOLCAS    ERIS     OPER   
                                         1380   
                                         JKOP   

              2       8       18.09       500      610      700     1000      520     2100     2140      701   
                                          VAR    BASINP    GEOM     BASIS   MCVARS     RHF     MCSCF    GEOM   

 PROGRAMS   *        TOTAL        CI     MULTI       INT   RESTART
 CPU TIMES  *        82.63     47.56      2.15     32.82      0.01
 REAL TIME  *        85.99 SEC
 DISK USED  *         1.77 GB
 **********************************************************************************************************************************
 SETTING E1(1)          =      -686.68165202  AU                              
 SETTING E2(1)          =      -686.68053787  AU                              

 DO I                   =         2.00000000   


 Using spherical harmonics

 Library entry SI     S aug-cc-pV5Z          selected for orbital group  1
 Library entry SI     P aug-cc-pV5Z          selected for orbital group  1
 Library entry SI     D aug-cc-pV5Z          selected for orbital group  1
 Library entry SI     F aug-cc-pV5Z          selected for orbital group  1
 Library entry SI     G aug-cc-pV5Z          selected for orbital group  1
 Library entry SI     H aug-cc-pV5Z          selected for orbital group  1
 Library entry S      S aug-cc-pV5Z          selected for orbital group  2
 Library entry S      P aug-cc-pV5Z          selected for orbital group  2
 Library entry S      D aug-cc-pV5Z          selected for orbital group  2
 Library entry S      F aug-cc-pV5Z          selected for orbital group  2
 Library entry S      G aug-cc-pV5Z          selected for orbital group  2
 Library entry S      H aug-cc-pV5Z          selected for orbital group  2


 PROGRAM * SEWARD (Integral evaluation for generally contracted gaussian basis sets)     Author: Roland Lindh, 1990

 Geometry written to block  1 of record 701

 Orientation using atomic masses  
 Molecule type: Linear
 Symmetry elements: X,Y
 Rotational constants:       6.7278858      6.7278858      0.0000000 GHz  (calculated with average atomic masses)

 Point group  C2v 



 ATOMIC COORDINATES

 NR  ATOM    CHARGE       X              Y              Z

   1  SI     14.00    0.000000000    0.000000000   -2.256354138
   2  S      16.00    0.000000000    0.000000000    1.976632381

 Bond lengths in Bohr (Angstrom)

 1-2  4.232986519
     ( 2.240000000)

 NUCLEAR CHARGE:                   30
 NUMBER OF PRIMITIVE AOS:         434
 NUMBER OF SYMMETRY AOS:          324
 NUMBER OF CONTRACTIONS:          262   (   96A1  +   64B1  +   64B2  +   38A2  )
 NUMBER OF INNER CORE ORBITALS:     2   (    2A1  +    0B1  +    0B2  +    0A2  )
 NUMBER OF OUTER CORE ORBITALS:     8   (    4A1  +    2B1  +    2B2  +    0A2  )
 NUMBER OF VALENCE ORBITALS:        8   (    4A1  +    2B1  +    2B2  +    0A2  )


 NUCLEAR REPULSION ENERGY   52.91772109

 EXTRA SYMMETRY OF AOS IN SYMMETRY 1:   1 1 1 1 1 1 1 1 1 1   1 1 1 1 1 1 2 1 2 1   2 1 2 1 2 1 2 1 2 1   2 1 2 1 3 2 1 3 2 1
                                        3 2 2 3 1 2 3 1 1 1   1 1 1 1 1 1 1 1 1 1   1 1 1 1 2 1 2 1 2 1   2 1 2 1 2 1 2 1 2 1
                                        2 1 3 2 1 3 2 1 3 2   2 3 1 2 3 1
 EXTRA SYMMETRY OF AOS IN SYMMETRY 2:   1 1 1 1 1 1 1 1 1 1   1 1 1 2 1 2 1 2 1 2   1 2 1 2 1 2 1 2 3 1   2 3 1 1 1 1 1 1 1 1
                                        1 1 1 1 1 2 1 2 1 2   1 2 1 2 1 2 1 2 1 2   3 1 2 3
 EXTRA SYMMETRY OF AOS IN SYMMETRY 3:   1 1 1 1 1 1 1 1 1 1   1 1 1 2 1 2 1 2 1 2   1 2 1 2 1 2 1 2 3 1   2 3 1 1 1 1 1 1 1 1
                                        1 1 1 1 1 2 1 2 1 2   1 2 1 2 1 2 1 2 1 2   3 1 2 3
 EXTRA SYMMETRY OF AOS IN SYMMETRY 4:   1 1 1 1 1 1 1 1 1 1   2 1 2 1 2 2 1 2 1 1   1 1 1 1 1 1 1 1 1 2   1 2 1 2 2 1 2 1

 Eigenvalues of metric

         1 0.776E-05 0.858E-05 0.197E-04 0.265E-04 0.514E-04 0.351E-03 0.496E-03 0.143E-02
         2 0.904E-05 0.107E-04 0.403E-03 0.243E-02 0.806E-02 0.130E-01 0.262E-01 0.321E-01
         3 0.904E-05 0.107E-04 0.403E-03 0.243E-02 0.806E-02 0.130E-01 0.262E-01 0.321E-01
         4 0.592E-02 0.187E-01 0.407E-01 0.579E-01 0.651E-01 0.734E-01 0.104E+00 0.144E+00


 Contracted 2-electron integrals neglected if value below      1.0D-12
 AO integral compression algorithm  1   Integral accuracy      1.0D-12

     623.378 MB (compressed) written to integral file ( 43.0%)


 NUMBER OF SORTED TWO-ELECTRON INTEGRALS:  150955559.     BUFFER LENGTH:  32768
 NUMBER OF SEGMENTS:  10  SEGMENT LENGTH:   15998976      RECORD LENGTH: 524288

 Memory used in sort:      16.56 MW

 SORT1 READ   181316810. AND WROTE   100527914. INTEGRALS IN    293 RECORDS. CPU TIME:     1.91 SEC, REAL TIME:     2.36 SEC
 SORT2 READ   100527914. AND WROTE   150955559. INTEGRALS IN   2378 RECORDS. CPU TIME:     1.43 SEC, REAL TIME:     1.69 SEC

 FILE SIZES:   FILE 1:   655.1 MBYTE,  FILE 4:  1229.0 MBYTE,   TOTAL:   1884.0 MBYTE

 OPERATOR DM      FOR CENTER  0  COORDINATES:    0.000000    0.000000    0.000000


 **********************************************************************************************************************************
 DATASETS  * FILE   NREC   LENGTH (MB)   RECORD NAMES
              1      20      511.22       500      700      610      701      900      950      970     1000      129      960   
                                          VAR     GEOM    BASINP    GEOM    SYMINP    ZMAT    AOBASIS   BASIS     P2S    ABASIS    
                                         1100     1400     1410     1200     1210     1080     1600     1650     1300     1700   
                                           S        T        V       H0       H01     AOSYM     SMH    MOLCAS    ERIS     OPER   

              2       8       18.09       500      610      700     1000      520     2100     2140      701   
                                          VAR    BASINP    GEOM     BASIS   MCVARS     RHF     MCSCF    GEOM   

 PROGRAMS   *        TOTAL       INT        CI     MULTI       INT   RESTART
 CPU TIMES  *       115.68     33.05     47.56      2.15     32.82      0.01
 REAL TIME  *       120.12 SEC
 DISK USED  *         1.77 GB
 **********************************************************************************************************************************

 PROGRAM * MULTI (Direct Multiconfiguration SCF)       Authors: P.J. Knowles, H.-J. Werner (1984)
                                                                D.A. Kreplin, P.J. Knowles, H.-J. Werner (2019)

 Number of closed-shell orbitals:  10 (   6   2   2   0 )
 Number of active  orbitals:        8 (   4   2   2   0 )
 Number of external orbitals:     244 (  86  60  60  38 )

 State symmetry 1

 Number of active electrons:  10    Spin symmetry=Singlet   Space symmetry=4
 Number of states:             3
 Number of CSFs:             272   (776 determinants, 3136 intermediate states)

 Molecular orbitals read from record     2140.2  Type=MCSCF/NATURAL (state averaged)

 EXTRA SYMMETRY OF MOS IN SYMMETRY 1:   1 1 1 1 1 1 1 1 1 1   1 1 1 2 1 1 1 2 1 2   1 1 2 1 1 1 2 2 1 3   1 2 1 2 1 2 1 3 1 1
                                        2 2 1 1 2 1 2 1 3 3   1 2 1 1 2 2 1 1 2 3   3 1 2 1 2 1 2 1 1 2   1 3 3 2 1 1 2 1 1 2
                                        1 3 2 1 3 2 2 1 1 1   2 1 1 1 1 1
 EXTRA SYMMETRY OF MOS IN SYMMETRY 2:   1 1 1 1 1 1 1 1 2 1   1 1 1 2 1 1 2 2 1 1   1 1 2 2 1 1 1 2 1 3   2 1 1 2 1 2 1 3 2 1
                                        1 2 1 2 1 1 1 1 2 3   2 1 1 2 1 2 3 2 1 1   1 1 1 1
 EXTRA SYMMETRY OF MOS IN SYMMETRY 3:   1 1 1 1 1 1 1 1 2 1   1 1 1 2 1 1 2 2 1 1   1 1 2 2 1 1 1 2 1 3   2 1 1 2 1 2 1 3 2 1
                                        1 2 1 2 1 1 1 1 2 3   2 1 1 2 1 2 3 2 1 1   1 1 1 1
 EXTRA SYMMETRY OF MOS IN SYMMETRY 4:   1 1 1 1 1 1 2 1 1 1   2 1 1 1 1 2 2 1 1 1   1 2 2 1 1 1 1 2 2 1   1 1 2 1 2 1 1 1

 Wavefunction dump at record             2140.2

 Convergence thresholds  0.10E-04 (gradient)  0.10E-05 (energy)

 Weight factors for state symmetry  1:    0.33333   0.33333   0.33333
 
 Number of orbital rotations:  1372  ( 32 closed/active, 756 closed/virtual, 0 active/active, 584 active/virtual )
 Total number of variables:    3700
 
  Second-order MCSCF: L-BFGS accelerated
 
 ITER  MIC  NCI  NEG     ENERGY(VAR)    ENERGY(PROJ) ENERGY CHANGE       GRAD(0)  GRAD(ORB)   GRAD(CI)      STEP      TIME
   1   11   20    0   -686.38173820    -686.38174711   -0.00000892    0.00383311 0.00001189 0.00001019  0.12E-01      1.34
   2   15   21    0   -686.38174711    -686.38174711   -0.00000000    0.00000558 0.00000001 0.00000006  0.15E-03      2.73

 CONVERGENCE REACHED!  Final gradient:    0.00000002 ( 0.16E-07)
                       Final energy:   -686.38174711
 
 Results for state 1.4
 =====================
 !MCSCF STATE 1.4 Energy                      -686.445066780182
 Nuclear energy                                 52.91772109
 Kinetic energy                                686.55707531
 One electron energy                         -1056.08408559
 Two electron energy                           316.72129772
 Virial ratio                                    1.99983685
 
 !MCSCF STATE 1.4 Dipole moment                  0.00000000     0.00000000    -0.36749069
 Dipole moment /Debye                            0.00000000     0.00000000    -0.93406815
 
 Results for state 2.4
 =====================
 !MCSCF STATE 2.4 Energy                      -686.444773291820
 Nuclear energy                                 52.91772109
 Kinetic energy                                686.55084606
 One electron energy                         -1056.06991765
 Two electron energy                           316.70742327
 Virial ratio                                    1.99984550
 
 !MCSCF STATE 2.4 Dipole moment                  0.00000000     0.00000000    -0.33387113
 Dipole moment /Debye                            0.00000000     0.00000000    -0.84861577
 
 Results for state 3.4
 =====================
 !MCSCF STATE 3.4 Energy                      -686.255401264391
 Nuclear energy                                 52.91772109
 Kinetic energy                                686.09366953
 One electron energy                         -1054.64753371
 Two electron energy                           315.47441135
 Virial ratio                                    2.00023573
 
 !MCSCF STATE 3.4 Dipole moment                  0.00000000     0.00000000    -0.28928437
 Dipole moment /Debye                            0.00000000     0.00000000    -0.73528753
 
 State-averaged charge density matrix saved on record 2140.2 (density set 1)
 
 Expectation values: (only non-zero values are shown)
 
 !MCSCF expec                       <1.4|DMZ|1.4>    -0.367490685174 au =    -0.934068152973 Debye
 !MCSCF expec                       <2.4|DMZ|2.4>    -0.333871130626 au =    -0.848615768769 Debye
 !MCSCF expec                       <3.4|DMZ|3.4>    -0.289284370484 au =    -0.735287528427 Debye
 
 Transition values: (only non-zero values with the ground state are shown)
 
 !MCSCF trans                       <1.4|DMZ|3.4>     0.088103678496 au =     0.223937214092 Debye
 

 EXTRA SYMMETRY OF MOS IN SYMMETRY 1:   1 1 1 1 1 1 1 1 1 1   1 1 1 2 1 1 1 2 1 2   1 1 2 1 1 1 2 2 1 3   1 2 1 2 1 2 1 3 1 1
                                        2 2 1 1 2 1 2 1 3 3   1 2 1 1 2 2 1 1 2 3   3 1 2 1 2 1 1 2 1 2   1 3 3 2 1 1 2 1 1 2
                                        1 3 2 1 3 2 2 1 1 1   2 1 1 1 1 1
 
 Natural orbital dump (state averaged) at molpro section 2140.2 (Orbital set 2)
 
 Reoptimze the CI vectors with natural orbitals 
 
 CI Coefficients of symmetry 4
 =============================
 
 2200 2b 2a      0.01082076      0.00000000     -0.66658056
 2200 2a 2b     -0.01082076     -0.00000000      0.66658056
 2220 2b a0      0.48797491      0.48898365      0.01477630
 2220 2a b0     -0.48797491     -0.48898365     -0.01477630
 2220 b0 2a      0.48797491     -0.48898365      0.01477630
 2220 a0 2b     -0.48797491      0.48898365     -0.01477630
 2020 2b 2a      0.02412750      0.00000000      0.12186305
 2020 2a 2b     -0.02412750     -0.00000000     -0.12186305
 2220 0b 2a     -0.02012588      0.00925400      0.08653440
 2220 0a 2b      0.02012588     -0.00925400     -0.08653440
 2220 2b 0a     -0.02012588     -0.00925400      0.08653440
 2220 2a 0b      0.02012588      0.00925400     -0.08653440
 2ba0 a2 2b      0.03364923     -0.03432842     -0.05435244
 2ab0 b2 2a      0.03364923     -0.03432842     -0.05435244
 2ab0 2a b2     -0.03364923     -0.03432842      0.05435244
 2ba0 2b a2     -0.03364923     -0.03432842      0.05435244
 
 Energy:      -686.44506678   -686.44477329   -686.25540126
 


 **********************************************************************************************************************************
 DATASETS  * FILE   NREC   LENGTH (MB)   RECORD NAMES
              1      21      546.32       500      700      610      701      900      950      970     1000      129      960   
                                          VAR     GEOM    BASINP    GEOM    SYMINP    ZMAT    AOBASIS   BASIS     P2S    ABASIS    
                                         1100     1400     1410     1200     1210     1080     1600     1650     1300     1700   
                                           S        T        V       H0       H01     AOSYM     SMH    MOLCAS    ERIS     OPER   
                                         1380   
                                         JKOP   

              2       8       18.09       500      610      700     1000      520     2100     2140      701   
                                          VAR    BASINP    GEOM     BASIS   MCVARS     RHF     MCSCF    GEOM   

 PROGRAMS   *        TOTAL     MULTI       INT        CI     MULTI       INT   RESTART
 CPU TIMES  *       119.18      3.50     33.05     47.56      2.15     32.82      0.01
 REAL TIME  *       124.00 SEC
 DISK USED  *         1.77 GB
 **********************************************************************************************************************************


 PROGRAM * CI (Multireference internally contracted CI)     Authors: H.-J. Werner, P.J. Knowles, 1987


 Convergence thresholds:  THRVAR = 1.00D-08  THRDEN = 1.00D-06

 Number of optimized states: 2  Roots:    1   2
 Number of reference states: 2  Roots:    1   2

 Program parameters:       NSTATE=  2    NSTATI=  3    NSTATR=  2    NCEPA = -1    NOKOP =  0    ITRDM =  0    ITRANS=  0
                           IDIP  =200    MAXIT =250    MAXITI=250    MAXDAV=  6    MAXVI =  9    NOSING=  0    NOPAIR=  0
                           MXSHRF=  6    IKCPS =  0    IOPTGM=  2    IOPTOR=  0    REFOPT=  1    IAVDEN=  0    IDELCG=  1
                           IREST =  0    NATORB=  0    IPUNRF=  0    ISEP  =  0    OLDDEN=  0    NSTPRI=  1    GPSFLI= -1
                           CLUSTE=  0    CLOSED=  1    ILSTYP=  0    ITRLS =  0    ICCSD =  0    LOCAL =  0    IBASO =  0
                           MP    =  0    ITEDIS=  2    INCDIS=  1    MAXDIS=  6    ITYDIS=  1    BRUECK=  0    IBRSTR=  3
                           INCBRK=  1    TRIPLE=  0    ICCTYP=  1    IHPPD =  0    ICCNEW=  0    I3EXT = -1    IDEB  =  0
                           IDLEIG=  1    IDFTYP=  1    IMP3  =  0    IPROCS=  0    NOINT =  0    NOREF =  1    IMP2G =  0
                           IHINT =  0    IFDIA =  0    ISPARO=  1    JKSYM =  0    CPHF  =  0    MP2D  = -1    DKINT =  0
                           NPKEX =  1    DRVK  =  1    HLSTRA=  1    WIGNER=  1    DIIS_C=  1    MAXIT_= 50    MATEL =  0
                           SPDEG =  1    MEMCPH=  0    DISM  =  1    KDCPMA=  5    IKDCP_=  0    IREDTH=  0    USECS =  0
                           IPROCC=  0    I3SAVE=  1    IKDCP =  1    USECI =  0    OLDPAI=  0    IPROCI=  0    KEEPCL=  1
                           DISCON=  0    SHIFTE=  0    DIISIN=  0    MOLCAS=  0    MEM_PT=  0    RECORD=  0    RS2C  =  0
                           KEXT  = -1    CIPT2 =  0    DECP0S=  0    I4EXT = -1    NATCOR=  0    RIMP2 =  0    DDCI  = -1
                           IPOLAR=  0

 Reference symmetry:                   4   Singlet 
 Number of electrons:                 30
 Maximum number of shells:             6
 Maximum number of spin couplings:    42

 Reference space:      160 conf      272 CSFs
 N elec internal:      784 conf     1176 CSFs
 N-1 el internal:     1012 conf     2348 CSFs
 N-2 el internal:      928 conf     3697 CSFs

 Number of electrons in valence space:                     10
 Maximum number of open shell orbitals in reference space:  6
 Maximum number of open shell orbitals in internal spaces: 10


 Number of core orbitals:          10 (   6   2   2   0 )
 Number of active  orbitals:        8 (   4   2   2   0 )
 Number of external orbitals:     244 (  86  60  60  38 )

 Molecular orbitals read from record     2140.2  Type=MCSCF/NATURAL (state averaged)

 Valence orbitals related to previous ones by unitary transformation. Operators transformed.


 Number of p-space configurations:  15

 Reference wavefunction optimized for reference space (refopt=1)

 State     Reference Energy 
     1      -686.44506678
     2      -686.44477329
     3      -686.25540126

 Number of blocks in overlap matrix:     8   Smallest eigenvalue:  0.22D-02
 Number of N-2 electron functions:     128
 Number of N-1 electron functions:    2348

 Number of internal configurations:                  272
 Number of singly external configurations:        141976
 Number of doubly external configurations:        972960
 Total number of contracted configurations:      1115208
 Total number of uncontracted configurations:   27707036

 Diagonal Coupling coefficients finished.               Storage:  185115 words, CPU-Time:      0.04 seconds.
 Energy denominators for pairs finished in 1 passes.    Storage:  362457 words, CPU-time:      0.01 seconds.

  ITER. STATE  ROOT     SQ.NORM     CORR.ENERGY   TOTAL ENERGY   ENERGY CHANGE       DEN1      VAR(S)    VAR(P)      TIME
    1     1     1     1.00000000     0.00000000  -686.44506678     0.00000000    -0.23735485  0.59D-01  0.55D-01     0.43
    1     2     2     1.00000000     0.00000000  -686.44477329     0.00000000    -0.23880815  0.61D-01  0.54D-01     0.43
    2     1     1     1.10536201    -0.22878101  -686.67384779    -0.22878101    -0.00644832  0.13D-02  0.14D-02     6.31
    2     2     2     1.10399418    -0.22789627  -686.67266956    -0.22789627    -0.00649420  0.14D-02  0.14D-02     6.31
    3     1     1     1.11422723    -0.23612993  -686.68119671    -0.00734892    -0.00047881  0.11D-03  0.97D-04    12.21
    3     2     2     1.11253130    -0.23528431  -686.68005760    -0.00738803    -0.00048429  0.11D-03  0.98D-04    12.21
    4     1     1     1.11711852    -0.23666648  -686.68173326    -0.00053655    -0.00005301  0.16D-04  0.89D-05    18.09
    4     2     2     1.11540016    -0.23582740  -686.68060070    -0.00054310    -0.00005304  0.15D-04  0.90D-05    18.09
    5     1     1     1.11760722    -0.23672291  -686.68178969    -0.00005643    -0.00000688  0.20D-05  0.10D-05    24.00
    5     2     2     1.11588518    -0.23588425  -686.68065754    -0.00005685    -0.00000656  0.18D-05  0.10D-05    24.00
    6     1     1     1.11765733    -0.23673002  -686.68179680    -0.00000710    -0.00000091  0.27D-06  0.14D-06    29.89
    6     2     2     1.11592705    -0.23589106  -686.68066435    -0.00000681    -0.00000085  0.24D-06  0.13D-06    29.89
    7     1     1     1.11769167    -0.23673095  -686.68179773    -0.00000093    -0.00000015  0.54D-07  0.21D-07    35.79
    7     2     2     1.11595905    -0.23589192  -686.68066521    -0.00000086    -0.00000013  0.46D-07  0.20D-07    35.79
    8     1     1     1.11771198    -0.23673111  -686.68179789    -0.00000016    -0.00000003  0.93D-08  0.32D-08    41.70
    8     2     2     1.11597800    -0.23589206  -686.68066535    -0.00000014    -0.00000002  0.74D-08  0.30D-08    41.70
    9     1     1     1.11771743    -0.23673113  -686.68179791    -0.00000003    -0.00000000  0.18D-08  0.53D-09    47.60
    9     2     2     1.11598257    -0.23589208  -686.68066537    -0.00000002    -0.00000000  0.14D-08  0.50D-09    47.60


 =====================================
 Analysis of CPU times by interactions
 =====================================

       I      S      P

 I   0.2%
 S   0.1%   2.4%
 P   0.5%   8.0%  46.4%

 Initialization:   0.8%
 Other:           41.5%

 Total CPU:       47.6 seconds
 =====================================



 gnormi=  0.89468051  gnorms=  0.05044211  gnormp=  0.05487738  gnorm=  1.00000000
 ecorri= -0.21179873  ecorrs= -0.01194118  ecorrp= -0.01299122  ecorr= -0.23673113

 gnormi=  0.89607134  gnorms=  0.04808764  gnormp=  0.05584102  gnorm=  1.00000000
 ecorri= -0.21137613  ecorrs= -0.01134334  ecorrp= -0.01317261  ecorr= -0.23589208

 Reference coefficients greater than 0.0500000
 =============================================
 22202/\0          -0.6565861   0.6556182
 2220/02\           0.6565861   0.6556182
 2/\02/\2          -0.0558948   0.0555832
 2/\0/22\           0.0558948   0.0555832
 20202/\2           0.0506319  -0.0514759
 2020/22\          -0.0506319  -0.0514758

 Coefficients of fixed reference functions:
 ==========================================

 State      Coefficients
 1          -0.000000    0.945361
 2           0.946224    0.000000

 Coefficients of rotated reference functions:
 ============================================

 State      Coefficients
 1           0.945361    0.000000
 2           0.000000    0.946224


 RESULTS FOR STATE 1.4
 =====================

 Maximum overlap with reference state  2

 Coefficient of reference function:   C(0) = 0.94536134 (fixed)   0.94587552 (relaxed)   0.94536134 (rotated)

 Energy contributions of configuration classes

 CLASS          SQ.NORM        ECORR1        ECORR2
 +++++++++++++++++++++++++++++++++++++++++++++++++++
 Internals    0.00108809   -0.00000000    0.00003209
 Singles      0.05644137   -0.08135783   -0.08465134
 Pairs        0.06140415   -0.15566679   -0.15211188
 Total        1.11893361   -0.23702462   -0.23673113
 +++++++++++++++++++++++++++++++++++++++++++++++++++


 Reference energy                    -686.44477329
 Nuclear energy                        52.91772109
 Kinetic energy                       686.64205666
 One electron energy                -1055.96740802
 Two electron energy                  316.36788901
 Virial quotient                       -1.00005788
 Correlation energy                    -0.23702462
 !MRCI STATE 1.4 Energy              -686.681797914227

 Properties without orbital relaxation:

 !MRCI STATE 1.4 Dipole moment          0.00000000     0.00000000    -0.33267385
 Dipole moment /Debye                   0.00000000     0.00000000    -0.84557258

 Cluster corrected energies          -686.70998811 (Davidson, fixed reference)
 Cluster corrected energies          -686.70969984 (Davidson, relaxed reference)
 Cluster corrected energies          -686.70998811 (Davidson, rotated reference)

 Cluster corrected energies          -686.70601966 (Pople, fixed reference)
 Cluster corrected energies          -686.70575452 (Pople, relaxed reference)
 Cluster corrected energies          -686.70601966 (Pople, rotated reference)



 RESULTS FOR STATE 2.4
 =====================

 Maximum overlap with reference state  1

 Coefficient of reference function:   C(0) = 0.94622446 (fixed)   0.94661045 (relaxed)   0.94622446 (rotated)

 Energy contributions of configuration classes

 CLASS          SQ.NORM        ECORR1        ECORR2
 +++++++++++++++++++++++++++++++++++++++++++++++++++
 Internals    0.00081602   -0.00000000   -0.14124623
 Singles      0.05370876   -0.07832761   -0.08147323
 Pairs        0.06236846   -0.00000001   -0.01317262
 Total        1.11689323   -0.07832762   -0.23589208
 +++++++++++++++++++++++++++++++++++++++++++++++++++


 Reference energy                    -686.44506678
 Nuclear energy                        52.91772109
 Kinetic energy                       686.64696133
 One electron energy                -1055.97530425
 Two electron energy                  316.37691778
 Virial quotient                       -1.00004908
 Correlation energy                    -0.23559859
 !MRCI STATE 2.4 Energy              -686.680665371031

 Properties without orbital relaxation:

 !MRCI STATE 2.4 Dipole moment          0.00000000     0.00000000    -0.37782689
 Dipole moment /Debye                   0.00000000     0.00000000    -0.96034017

 Cluster corrected energies          -686.70820525 (Davidson, fixed reference)
 Cluster corrected energies          -686.70799070 (Davidson, relaxed reference)
 Cluster corrected energies          -686.70820525 (Davidson, rotated reference)

 Cluster corrected energies          -686.70429945 (Pople, fixed reference)
 Cluster corrected energies          -686.70410253 (Pople, relaxed reference)
 Cluster corrected energies          -686.70429945 (Pople, rotated reference)


 !MRCI trans          <2.4|DMZ|1.4>     0.000000258622 au =     0.000000657352 Debye


 **********************************************************************************************************************************
 DATASETS  * FILE   NREC   LENGTH (MB)   RECORD NAMES
              1      21      546.32       500      700      610      701      900      950      970     1000      129      960   
                                          VAR     GEOM    BASINP    GEOM    SYMINP    ZMAT    AOBASIS   BASIS     P2S    ABASIS    
                                         1100     1400     1410     1200     1210     1080     1600     1650     1300     1700   
                                           S        T        V       H0       H01     AOSYM     SMH    MOLCAS    ERIS     OPER   
                                         1380   
                                         JKOP   

              2       8       18.09       500      610      700     1000      520     2100     2140      701   
                                          VAR    BASINP    GEOM     BASIS   MCVARS     RHF     MCSCF    GEOM   

 PROGRAMS   *        TOTAL        CI     MULTI       INT        CI     MULTI       INT   RESTART
 CPU TIMES  *       166.98     47.80      3.50     33.05     47.56      2.15     32.82      0.01
 REAL TIME  *       173.68 SEC
 DISK USED  *         1.77 GB
 **********************************************************************************************************************************
 SETTING E1(2)          =      -686.68179791  AU                              
 SETTING E2(2)          =      -686.68066537  AU                              

 DO I                   =         3.00000000   


 Using spherical harmonics

 Library entry SI     S aug-cc-pV5Z          selected for orbital group  1
 Library entry SI     P aug-cc-pV5Z          selected for orbital group  1
 Library entry SI     D aug-cc-pV5Z          selected for orbital group  1
 Library entry SI     F aug-cc-pV5Z          selected for orbital group  1
 Library entry SI     G aug-cc-pV5Z          selected for orbital group  1
 Library entry SI     H aug-cc-pV5Z          selected for orbital group  1
 Library entry S      S aug-cc-pV5Z          selected for orbital group  2
 Library entry S      P aug-cc-pV5Z          selected for orbital group  2
 Library entry S      D aug-cc-pV5Z          selected for orbital group  2
 Library entry S      F aug-cc-pV5Z          selected for orbital group  2
 Library entry S      G aug-cc-pV5Z          selected for orbital group  2
 Library entry S      H aug-cc-pV5Z          selected for orbital group  2


 PROGRAM * SEWARD (Integral evaluation for generally contracted gaussian basis sets)     Author: Roland Lindh, 1990

 Geometry written to block  1 of record 701

 Orientation using atomic masses  
 Molecule type: Linear
 Symmetry elements: X,Y
 Rotational constants:       6.7883609      6.7883609      0.0000000 GHz  (calculated with average atomic masses)

 Point group  C2v 



 ATOMIC COORDINATES

 NR  ATOM    CHARGE       X              Y              Z

   1  SI     14.00    0.000000000    0.000000000   -2.246281128
   2  S      16.00    0.000000000    0.000000000    1.967808130

 Bond lengths in Bohr (Angstrom)

 1-2  4.214089258
     ( 2.230000000)

 NUCLEAR CHARGE:                   30
 NUMBER OF PRIMITIVE AOS:         434
 NUMBER OF SYMMETRY AOS:          324
 NUMBER OF CONTRACTIONS:          262   (   96A1  +   64B1  +   64B2  +   38A2  )
 NUMBER OF INNER CORE ORBITALS:     2   (    2A1  +    0B1  +    0B2  +    0A2  )
 NUMBER OF OUTER CORE ORBITALS:     8   (    4A1  +    2B1  +    2B2  +    0A2  )
 NUMBER OF VALENCE ORBITALS:        8   (    4A1  +    2B1  +    2B2  +    0A2  )


 NUCLEAR REPULSION ENERGY   53.15502029

 EXTRA SYMMETRY OF AOS IN SYMMETRY 1:   1 1 1 1 1 1 1 1 1 1   1 1 1 1 1 1 2 1 2 1   2 1 2 1 2 1 2 1 2 1   2 1 2 1 3 2 1 3 2 1
                                        3 2 2 3 1 2 3 1 1 1   1 1 1 1 1 1 1 1 1 1   1 1 1 1 2 1 2 1 2 1   2 1 2 1 2 1 2 1 2 1
                                        2 1 3 2 1 3 2 1 3 2   2 3 1 2 3 1
 EXTRA SYMMETRY OF AOS IN SYMMETRY 2:   1 1 1 1 1 1 1 1 1 1   1 1 1 2 1 2 1 2 1 2   1 2 1 2 1 2 1 2 3 1   2 3 1 1 1 1 1 1 1 1
                                        1 1 1 1 1 2 1 2 1 2   1 2 1 2 1 2 1 2 1 2   3 1 2 3
 EXTRA SYMMETRY OF AOS IN SYMMETRY 3:   1 1 1 1 1 1 1 1 1 1   1 1 1 2 1 2 1 2 1 2   1 2 1 2 1 2 1 2 3 1   2 3 1 1 1 1 1 1 1 1
                                        1 1 1 1 1 2 1 2 1 2   1 2 1 2 1 2 1 2 1 2   3 1 2 3
 EXTRA SYMMETRY OF AOS IN SYMMETRY 4:   1 1 1 1 1 1 1 1 1 1   2 1 2 1 2 2 1 2 1 1   1 1 1 1 1 1 1 1 1 2   1 2 1 2 2 1 2 1

 Eigenvalues of metric

         1 0.774E-05 0.854E-05 0.196E-04 0.264E-04 0.507E-04 0.345E-03 0.490E-03 0.142E-02
         2 0.904E-05 0.107E-04 0.394E-03 0.240E-02 0.783E-02 0.128E-01 0.262E-01 0.313E-01
         3 0.904E-05 0.107E-04 0.394E-03 0.240E-02 0.783E-02 0.128E-01 0.262E-01 0.313E-01
         4 0.574E-02 0.184E-01 0.403E-01 0.579E-01 0.647E-01 0.731E-01 0.103E+00 0.144E+00


 Contracted 2-electron integrals neglected if value below      1.0D-12
 AO integral compression algorithm  1   Integral accuracy      1.0D-12

     624.165 MB (compressed) written to integral file ( 43.0%)


 NUMBER OF SORTED TWO-ELECTRON INTEGRALS:  150955559.     BUFFER LENGTH:  32768
 NUMBER OF SEGMENTS:  10  SEGMENT LENGTH:   15998976      RECORD LENGTH: 524288

 Memory used in sort:      16.56 MW

 SORT1 READ   181316810. AND WROTE   100533100. INTEGRALS IN    293 RECORDS. CPU TIME:     1.89 SEC, REAL TIME:     2.36 SEC
 SORT2 READ   100533100. AND WROTE   150955559. INTEGRALS IN   2381 RECORDS. CPU TIME:     1.41 SEC, REAL TIME:     1.69 SEC

 FILE SIZES:   FILE 1:   655.9 MBYTE,  FILE 4:  1229.0 MBYTE,   TOTAL:   1884.8 MBYTE

 OPERATOR DM      FOR CENTER  0  COORDINATES:    0.000000    0.000000    0.000000


 **********************************************************************************************************************************
 DATASETS  * FILE   NREC   LENGTH (MB)   RECORD NAMES
              1      20      511.75       500      700      610      701      900      950      970     1000      129      960   
                                          VAR     GEOM    BASINP    GEOM    SYMINP    ZMAT    AOBASIS   BASIS     P2S    ABASIS    
                                         1100     1400     1410     1200     1210     1080     1600     1650     1300     1700   
                                           S        T        V       H0       H01     AOSYM     SMH    MOLCAS    ERIS     OPER   

              2       8       18.09       500      610      700     1000      520     2100     2140      701   
                                          VAR    BASINP    GEOM     BASIS   MCVARS     RHF     MCSCF    GEOM   

 PROGRAMS   *        TOTAL       INT        CI     MULTI       INT        CI     MULTI       INT   RESTART
 CPU TIMES  *       200.01     33.03     47.80      3.50     33.05     47.56      2.15     32.82      0.01
 REAL TIME  *       207.81 SEC
 DISK USED  *         1.77 GB
 **********************************************************************************************************************************

 PROGRAM * MULTI (Direct Multiconfiguration SCF)       Authors: P.J. Knowles, H.-J. Werner (1984)
                                                                D.A. Kreplin, P.J. Knowles, H.-J. Werner (2019)

 Number of closed-shell orbitals:  10 (   6   2   2   0 )
 Number of active  orbitals:        8 (   4   2   2   0 )
 Number of external orbitals:     244 (  86  60  60  38 )

 State symmetry 1

 Number of active electrons:  10    Spin symmetry=Singlet   Space symmetry=4
 Number of states:             3
 Number of CSFs:             272   (776 determinants, 3136 intermediate states)

 Molecular orbitals read from record     2140.2  Type=MCSCF/NATURAL (state averaged)

 EXTRA SYMMETRY OF MOS IN SYMMETRY 1:   1 1 1 1 1 1 1 1 1 1   1 1 1 2 1 1 1 2 1 2   1 1 2 1 1 1 2 2 1 3   1 2 1 2 1 2 1 3 1 1
                                        2 2 1 1 2 1 2 1 3 3   1 2 1 1 2 2 1 1 2 3   3 1 2 1 2 1 1 2 1 2   1 3 3 2 1 1 2 1 1 2
                                        1 3 2 1 3 2 2 1 1 1   2 1 1 1 1 1
 EXTRA SYMMETRY OF MOS IN SYMMETRY 2:   1 1 1 1 1 1 1 1 2 1   1 1 1 2 1 1 2 2 1 1   1 1 2 2 1 1 1 2 1 3   2 1 1 2 1 2 1 3 2 1
                                        1 2 1 2 1 1 1 1 2 3   2 1 1 2 1 2 3 2 1 1   1 1 1 1
 EXTRA SYMMETRY OF MOS IN SYMMETRY 3:   1 1 1 1 1 1 1 1 2 1   1 1 1 2 1 1 2 2 1 1   1 1 2 2 1 1 1 2 1 3   2 1 1 2 1 2 1 3 2 1
                                        1 2 1 2 1 1 1 1 2 3   2 1 1 2 1 2 3 2 1 1   1 1 1 1
 EXTRA SYMMETRY OF MOS IN SYMMETRY 4:   1 1 1 1 1 1 2 1 1 1   2 1 1 1 1 2 2 1 1 1   1 2 2 1 1 1 1 2 2 1   1 1 2 1 2 1 1 1

 Wavefunction dump at record             2140.2

 Convergence thresholds  0.10E-04 (gradient)  0.10E-05 (energy)

 Weight factors for state symmetry  1:    0.33333   0.33333   0.33333
 
 Number of orbital rotations:  1372  ( 32 closed/active, 756 closed/virtual, 0 active/active, 584 active/virtual )
 Total number of variables:    3700
 
  Second-order MCSCF: L-BFGS accelerated
 
 ITER  MIC  NCI  NEG     ENERGY(VAR)    ENERGY(PROJ) ENERGY CHANGE       GRAD(0)  GRAD(ORB)   GRAD(CI)      STEP      TIME
   1   11   20    0   -686.38165698    -686.38166610   -0.00000911    0.00388446 0.00001225 0.00001046  0.12E-01      1.34
   2   17   24    0   -686.38166610    -686.38166610   -0.00000000    0.00000580 0.00000000 0.00000001  0.16E-03      2.76

 CONVERGENCE REACHED!  Final gradient:    0.00000001 ( 0.12E-07)
                       Final energy:   -686.38166610
 
 Results for state 1.4
 =====================
 !MCSCF STATE 1.4 Energy                      -686.445055299473
 Nuclear energy                                 53.15502029
 Kinetic energy                                686.56684839
 One electron energy                         -1056.55553121
 Two electron energy                           316.95545562
 Virial ratio                                    1.99982261
 
 !MCSCF STATE 1.4 Dipole moment                  0.00000000     0.00000000    -0.34985879
 Dipole moment /Debye                            0.00000000     0.00000000    -0.88925234
 
 Results for state 2.4
 =====================
 !MCSCF STATE 2.4 Energy                      -686.444755119762
 Nuclear energy                                 53.15502029
 Kinetic energy                                686.56067267
 One electron energy                         -1056.54134602
 Two electron energy                           316.94157062
 Virial ratio                                    1.99983116
 
 !MCSCF STATE 2.4 Dipole moment                  0.00000000     0.00000000    -0.31622284
 Dipole moment /Debye                            0.00000000     0.00000000    -0.80375828
 
 Results for state 3.4
 =====================
 !MCSCF STATE 3.4 Energy                      -686.255187878458
 Nuclear energy                                 53.15502029
 Kinetic energy                                686.09354984
 One electron energy                         -1055.11695869
 Two electron energy                           315.70675053
 Virial ratio                                    2.00023559
 
 !MCSCF STATE 3.4 Dipole moment                  0.00000000     0.00000000    -0.29564587
 Dipole moment /Debye                            0.00000000     0.00000000    -0.75145684
 
 State-averaged charge density matrix saved on record 2140.2 (density set 1)
 
 Expectation values: (only non-zero values are shown)
 
 !MCSCF expec                       <1.4|DMZ|1.4>    -0.349858785928 au =    -0.889252335249 Debye
 !MCSCF expec                       <2.4|DMZ|2.4>    -0.316222835365 au =    -0.803758276534 Debye
 !MCSCF expec                       <3.4|DMZ|3.4>    -0.295645868894 au =    -0.751456844575 Debye
 
 Transition values: (only non-zero values with the ground state are shown)
 
 !MCSCF trans                       <1.4|DMZ|3.4>     0.087145871247 au =     0.221502710897 Debye
 
 
 Natural orbital dump (state averaged) at molpro section 2140.2 (Orbital set 2)
 
 Reoptimze the CI vectors with natural orbitals 
 
 CI Coefficients of symmetry 4
 =============================
 
 2200 2b 2a      0.01143877     -0.00000000     -0.66722378
 2200 2a 2b     -0.01143877      0.00000000      0.66722378
 2220 a0 2b     -0.48801002      0.48904940     -0.01528861
 2220 b0 2a      0.48801002     -0.48904940      0.01528861
 2220 2b a0      0.48801002      0.48904940      0.01528861
 2220 2a b0     -0.48801002     -0.48904940     -0.01528861
 2020 2b 2a      0.02399723     -0.00000000      0.12350316
 2020 2a 2b     -0.02399723      0.00000000     -0.12350316
[...]
   74     1     1     1.17225767    -0.27703540  -684.95591507    -0.00000000    -0.00000000  0.59D-09  0.14D-09   324.23
   74     2     2     1.41860645    -0.26497715  -684.84687160    -0.00000025    -0.00000015  0.70D-07  0.19D-07   324.23
   75     1     1     1.17225737    -0.27703540  -684.95591507    -0.00000000    -0.00000000  0.58D-09  0.15D-09   328.30
   75     2     2     1.41969803    -0.26497733  -684.84687179    -0.00000018    -0.00000010  0.78D-07  0.12D-07   328.30
   76     1     1     1.17225708    -0.27703540  -684.95591507    -0.00000000    -0.00000000  0.58D-09  0.14D-09   332.37
   76     2     2     1.42094750    -0.26497749  -684.84687194    -0.00000016    -0.00000010  0.56D-07  0.14D-07   332.37
   77     1     1     1.17225748    -0.27703540  -684.95591507    -0.00000000    -0.00000000  0.58D-09  0.14D-09   336.46
   77     2     2     1.42207042    -0.26497764  -684.84687209    -0.00000015    -0.00000009  0.41D-07  0.13D-07   336.46
   78     1     1     1.17225755    -0.27703540  -684.95591507    -0.00000000    -0.00000000  0.59D-09  0.14D-09   340.54
   78     2     2     1.42370083    -0.26497780  -684.84687226    -0.00000017    -0.00000012  0.55D-07  0.17D-07   340.54
   79     1     1     1.17225758    -0.27703540  -684.95591507     0.00000000    -0.00000000  0.59D-09  0.14D-09   344.62
   79     2     2     1.42493955    -0.26497797  -684.84687242    -0.00000016    -0.00000010  0.49D-07  0.12D-07   344.62
   80     1     1     1.17225731    -0.27703540  -684.95591507    -0.00000000    -0.00000000  0.58D-09  0.14D-09   348.72
   80     2     2     1.42586504    -0.26497809  -684.84687255    -0.00000012    -0.00000007  0.52D-07  0.82D-08   348.72
   81     1     1     1.17225717    -0.27703540  -684.95591507    -0.00000000    -0.00000000  0.58D-09  0.14D-09   352.82
   81     2     2     1.42690403    -0.26497820  -684.84687266    -0.00000011    -0.00000007  0.33D-07  0.10D-07   352.82
   82     1     1     1.17225761    -0.27703540  -684.95591507    -0.00000000    -0.00000000  0.59D-09  0.14D-09   356.93
   82     2     2     1.42782084    -0.26497830  -684.84687275    -0.00000010    -0.00000006  0.27D-07  0.87D-08   356.93
   83     1     1     1.17225751    -0.27703540  -684.95591507    -0.00000000    -0.00000000  0.58D-09  0.14D-09   361.02
   83     2     2     1.42915240    -0.26497841  -684.84687287    -0.00000011    -0.00000008  0.37D-07  0.11D-07   361.02
   84     1     1     1.17225747    -0.27703540  -684.95591507    -0.00000000    -0.00000000  0.58D-09  0.14D-09   365.13
   84     2     2     1.43018816    -0.26497852  -684.84687297    -0.00000011    -0.00000007  0.34D-07  0.82D-08   365.13
   85     1     1     1.17225730    -0.27703540  -684.95591507    -0.00000000    -0.00000000  0.58D-09  0.14D-09   369.23
   85     2     2     1.43096793    -0.26497860  -684.84687306    -0.00000008    -0.00000005  0.34D-07  0.54D-08   369.23
   86     1     1     1.17225727    -0.27703540  -684.95591507    -0.00000000    -0.00000000  0.58D-09  0.14D-09   373.34
   86     2     2     1.43182561    -0.26497867  -684.84687313    -0.00000007    -0.00000005  0.21D-07  0.71D-08   373.34
   87     1     1     1.17225768    -0.27703540  -684.95591507    -0.00000000    -0.00000000  0.59D-09  0.14D-09   377.43
   87     2     2     1.43257225    -0.26497874  -684.84687319    -0.00000006    -0.00000004  0.19D-07  0.57D-08   377.43
   88     1     1     1.17225746    -0.27703540  -684.95591507    -0.00000000    -0.00000000  0.58D-09  0.14D-09   381.53
   88     2     2     1.43366053    -0.26497881  -684.84687327    -0.00000007    -0.00000005  0.25D-07  0.67D-08   381.53
   89     1     1     1.17225741    -0.27703540  -684.95591507     0.00000000    -0.00000000  0.58D-09  0.14D-09   385.62
   89     2     2     1.43452607    -0.26497889  -684.84687334    -0.00000007    -0.00000004  0.23D-07  0.56D-08   385.62
   90     1     1     1.17225733    -0.27703540  -684.95591507    -0.00000000    -0.00000000  0.58D-09  0.14D-09   389.72
   90     2     2     1.43517854    -0.26497894  -684.84687340    -0.00000006    -0.00000003  0.22D-07  0.37D-08   389.72
   91     1     1     1.17225733    -0.27703540  -684.95591507     0.00000000    -0.00000000  0.58D-09  0.14D-09   393.84
   91     2     2     1.43588360    -0.26497899  -684.84687345    -0.00000005    -0.00000003  0.13D-07  0.48D-08   393.84
   92     1     1     1.17225767    -0.27703540  -684.95591507    -0.00000000    -0.00000000  0.58D-09  0.14D-09   397.93
   92     2     2     1.43649162    -0.26497903  -684.84687349    -0.00000004    -0.00000003  0.13D-07  0.37D-08   397.93
   93     1     1     1.17225743    -0.27703540  -684.95591507    -0.00000000    -0.00000000  0.58D-09  0.14D-09   402.01
   93     2     2     1.43738210    -0.26497908  -684.84687354    -0.00000005    -0.00000003  0.17D-07  0.43D-08   402.01
   94     1     1     1.17225741    -0.27703540  -684.95591507     0.00000000    -0.00000000  0.58D-09  0.14D-09   406.13
   94     2     2     1.43810279    -0.26497913  -684.84687359    -0.00000005    -0.00000003  0.15D-07  0.38D-08   406.13
   95     1     1     1.17225737    -0.27703540  -684.95591507    -0.00000000    -0.00000000  0.58D-09  0.14D-09   410.23
   95     2     2     1.43864596    -0.26497917  -684.84687362    -0.00000004    -0.00000002  0.14D-07  0.25D-08   410.23
   96     1     1     1.17225735    -0.27703540  -684.95591507     0.00000000    -0.00000000  0.58D-09  0.14D-09   414.33
   96     2     2     1.43922396    -0.26497920  -684.84687366    -0.00000003    -0.00000002  0.87D-08  0.32D-08   414.33
   97     1     1     1.17225762    -0.27703540  -684.95591507    -0.00000000    -0.00000000  0.58D-09  0.14D-09   418.39
   97     2     2     1.43972035    -0.26497923  -684.84687369    -0.00000003    -0.00000002  0.94D-08  0.24D-08   418.39
   98     1     1     1.17225742    -0.27703540  -684.95591507    -0.00000000    -0.00000000  0.58D-09  0.14D-09   422.49
   98     2     2     1.44044923    -0.26497926  -684.84687372    -0.00000003    -0.00000002  0.11D-07  0.28D-08   422.49
   99     1     1     1.17225743    -0.27703540  -684.95591507    -0.00000000    -0.00000000  0.58D-09  0.14D-09   426.59
   99     2     2     1.44104667    -0.26497929  -684.84687375    -0.00000003    -0.00000002  0.98D-08  0.25D-08   426.59
  100     1     1     1.17225739    -0.27703540  -684.95591507    -0.00000000    -0.00000000  0.58D-09  0.14D-09   430.67
  100     2     2     1.44149721    -0.26497932  -684.84687378    -0.00000003    -0.00000001  0.94D-08  0.17D-08   430.67
  101     1     1     1.17225735    -0.27703540  -684.95591507    -0.00000000    -0.00000000  0.58D-09  0.14D-09   434.76
  101     2     2     1.44197038    -0.26497934  -684.84687380    -0.00000002    -0.00000001  0.58D-08  0.21D-08   434.76


 =====================================
 Analysis of CPU times by interactions
 =====================================

       I      S      P

 I   0.1%
 S   0.1%   2.0%
 P   0.6%   9.3%  49.4%

 Initialization:   0.1%
 Other:           38.4%

 Total CPU:      434.8 seconds
 =====================================



 gnormi=  0.85305500  gnorms=  0.08737306  gnormp=  0.05957194  gnorm=  1.00000000
 ecorri= -0.23632643  ecorrs= -0.02420484  ecorrp= -0.01650412  ecorr= -0.27703540

 gnormi=  0.69349552  gnorms=  0.24259904  gnormp=  0.06390544  gnorm=  1.00000000
 ecorri= -0.18376199  ecorrs= -0.06428853  ecorrp= -0.01692882  ecorr= -0.26497934

 Reference coefficients greater than 0.0500000
 =============================================
 22002/2\           0.9048790  -0.1222927
 2220/02\           0.0310826   0.5662914
 22202/\0           0.0310826   0.5662912
 20202/2\          -0.1409281   0.0719779
 2/\02/2\           0.0060746  -0.1334113
 2200/22\          -0.0329504  -0.0523071
 22002/\2          -0.0329504  -0.0523070

 Coefficients of singly external configurations greater than 0.0500000
 =====================================================================

 22\02020   1.4    -0.1430941  -0.3753160
 22\02020   2.4    -0.0953970  -0.2005169
 22\02020   3.4     0.0970548   0.0923739
 22\02020   4.4    -0.0296401  -0.0608525

 Coefficients of fixed reference functions:
 ==========================================

 State      Coefficients
 1           0.922784   -0.000214
 2          -0.087447    0.827066

 Coefficients of rotated reference functions:
 ============================================

 State      Coefficients
 1           0.921629   -0.046159
 2          -0.046159    0.830394


 RESULTS FOR STATE 1.4
 =====================

 Coefficient of reference function:   C(0) = 0.92278386 (fixed)   0.92360977 (relaxed)   0.92162871 (rotated)

 Energy contributions of configuration classes

 CLASS          SQ.NORM        ECORR1        ECORR2
 +++++++++++++++++++++++++++++++++++++++++++++++++++
 Internals    0.00430366   -0.00024155   -0.16276278
 Singles      0.10286450   -0.08778137   -0.09876629
 Pairs        0.07013419    0.00117471   -0.01550633
 Total        1.17730236   -0.08684821   -0.27703540
 +++++++++++++++++++++++++++++++++++++++++++++++++++


 Reference energy                    -684.67863924
 Nuclear energy                       105.83544218
 Kinetic energy                       691.62075863
 One electron energy                -1154.24056950
 Two electron energy                  363.44921225
 Virial quotient                       -0.99036344
 Correlation energy                    -0.27727583
 !MRCI STATE 1.4 Energy              -684.955915069656

 Properties without orbital relaxation:

 !MRCI STATE 1.4 Dipole moment          0.00000000     0.00000000     0.78605815
 Dipole moment /Debye                   0.00000000     0.00000000     1.99796054

 Cluster corrected energies          -685.00507673 (Davidson, fixed reference)
 Cluster corrected energies          -685.00367787 (Davidson, relaxed reference)
 Cluster corrected energies          -685.00507673 (Davidson, rotated reference)

 Cluster corrected energies          -684.99965261 (Pople, fixed reference)
 Cluster corrected energies          -684.99828100 (Pople, relaxed reference)
 Cluster corrected energies          -684.99965261 (Pople, rotated reference)



 RESULTS FOR STATE 2.4
 =====================

 Coefficient of reference function:   C(0) = 0.82706587 (fixed)   0.83276379 (relaxed)   0.83039402 (rotated)

 Energy contributions of configuration classes

 CLASS          SQ.NORM        ECORR1        ECORR2
 +++++++++++++++++++++++++++++++++++++++++++++++++++
 Internals    0.00571572   -0.00026809   -0.00209618
 Singles      0.35182010   -0.07991040   -0.11939109
 Pairs        0.09267645   -0.18354357   -0.14349207
 Total        1.45021227   -0.26372206   -0.26497934
 +++++++++++++++++++++++++++++++++++++++++++++++++++


 Reference energy                    -684.58213488
 Nuclear energy                       105.83544218
 Kinetic energy                       692.35606502
 One electron energy                -1154.04513329
 Two electron energy                  363.36281731
 Virial quotient                       -0.98915415
 Correlation energy                    -0.26473891
 !MRCI STATE 2.4 Energy              -684.846873797078

 Properties without orbital relaxation:

 !MRCI STATE 2.4 Dipole moment          0.00000000     0.00000000     1.13363432
 Dipole moment /Debye                   0.00000000     0.00000000     2.88141103

 Cluster corrected energies          -684.96606251 (Davidson, fixed reference)
 Cluster corrected energies          -684.96388055 (Davidson, relaxed reference)
 Cluster corrected energies          -684.96606251 (Davidson, rotated reference)

 Cluster corrected energies          -684.97040345 (Pople, fixed reference)
 Cluster corrected energies          -684.96763340 (Pople, relaxed reference)
 Cluster corrected energies          -684.97040345 (Pople, rotated reference)


 !MRCI trans          <2.4|DMZ|1.4>    -0.180474167818 au =    -0.458719579555 Debye


 **********************************************************************************************************************************
 DATASETS  * FILE   NREC   LENGTH (MB)   RECORD NAMES
              1      21      603.53       500      700      610      701      900      950      970     1000      129      960   
                                          VAR     GEOM    BASINP    GEOM    SYMINP    ZMAT    AOBASIS   BASIS     P2S    ABASIS    
                                         1100     1400     1410     1200     1210     1080     1600     1650     1300     1700   
                                           S        T        V       H0       H01     AOSYM     SMH    MOLCAS    ERIS     OPER   
                                         1380   
                                         JKOP   

              2       8       18.09       500      610      700     1000      520     2100     2140      701   
                                          VAR    BASINP    GEOM     BASIS   MCVARS     RHF     MCSCF    GEOM   

 PROGRAMS   *        TOTAL        CI     MULTI       INT        CI     MULTI       INT        CI     MULTI       INT        CI
 CPU TIMES  *     13854.03    434.94      5.03     33.85    263.48      5.08     33.60    171.73      4.98     33.57    139.60
 REAL TIME  *     14430.11 SEC
 DISK USED  *         1.83 GB
 **********************************************************************************************************************************
 SETTING E1(143)        =      -684.95591507  AU                              
 SETTING E2(143)        =      -684.84687380  AU                              


      R          E1             E2
    2.250   -686.6816520   -686.6805379
    2.240   -686.6817979   -686.6806654
    2.230   -686.6819060   -686.6807554
    2.220   -686.6819747   -686.6808063
    2.210   -686.6820022   -686.6808163
    2.200   -686.6819867   -686.6807837
    2.190   -686.6819262   -686.6807065
    2.180   -686.6818190   -686.6805829
    2.170   -686.6816628   -686.6804107
    2.160   -686.6814556   -686.6801880
    2.150   -686.6811952   -686.6799124
    2.140   -686.6808792   -686.6795818
    2.130   -686.6805054   -686.6791937
    2.120   -686.6800713   -686.6787457
    2.112   -686.6796788   -686.6783425
    2.100   -686.6790116   -686.6776598
    2.090   -686.6783807   -686.6770166
    2.080   -686.6776786   -686.6763027
    2.070   -686.6769023   -686.6755152
    2.060   -686.6760489   -686.6746512
    2.050   -686.6751150   -686.6737073
    2.040   -686.6740974   -686.6726804
    2.030   -686.6729926   -686.6715671
    2.020   -686.6717970   -686.6703636
    2.010   -686.6705069   -686.6690665
    2.000   -686.6691184   -686.6676718
    1.990   -686.6676276   -686.6661756
    1.980   -686.6660301   -686.6645737
    1.970   -686.6643217   -686.6628618
    1.960   -686.6624978   -686.6610355
    1.957   -686.6619274   -686.6604646
    1.950   -686.6605538   -686.6590901
    1.940   -686.6584847   -686.6570207
    1.930   -686.6562856   -686.6548225
    1.920   -686.6539511   -686.6524901
    1.910   -686.6514758   -686.6500181
    1.900   -686.6488539   -686.6474009
    1.890   -686.6460796   -686.6446326
    1.880   -686.6431468   -686.6417071
    1.870   -686.6400490   -686.6386182
    1.860   -686.6367797   -686.6353592
    1.850   -686.6333319   -686.6319234
    1.840   -686.6296985   -686.6283035
    1.830   -686.6258720   -686.6244922
    1.820   -686.6218448   -686.6204819
    1.810   -686.6176088   -686.6162645
    1.800   -686.6131557   -686.6118319
    1.790   -686.6084768   -686.6071753
    1.780   -686.6035631   -686.6022858
    1.770   -686.5984053   -686.5971541
    1.760   -686.5929936   -686.5917707
    1.750   -686.5873181   -686.5861254
    1.740   -686.5813681   -686.5802078
    1.730   -686.5751329   -686.5740071
    1.720   -686.5686011   -686.5675120
    1.710   -686.5617611   -686.5607109
    1.700   -686.5546006   -686.5535917
    1.690   -686.5471070   -686.5461417
    1.680   -686.5392672   -686.5383479
    1.670   -686.5310675   -686.5301967
    1.660   -686.5224939   -686.5216741
    1.650   -686.5135316   -686.5127654
    1.640   -686.5041655   -686.5034554
    1.630   -686.4943797   -686.4937284
    1.620   -686.4841578   -686.4835681
    1.610   -686.4734829   -686.4729576
    1.600   -686.4623374   -686.4618794
    1.590   -686.4507030   -686.4503151
    1.580   -686.4385607   -686.4382461
    1.570   -686.4258911   -686.4256527
    1.560   -686.4126736   -686.4125147
    1.550   -686.3988874   -686.3988113
    1.540   -686.3845208   -686.3845106
    1.530   -686.3696207   -686.3695207
    1.520   -686.3540878   -686.3538943
    1.510   -686.3378984   -686.3376075
    1.500   -686.3210276   -686.3206351
    1.490   -686.3034498   -686.3029515
    1.480   -686.2851390   -686.2845300
    1.470   -686.2660678   -686.2653432
    1.460   -686.2462083   -686.2453627
    1.450   -686.2255320   -686.2245594
    1.440   -686.2040093   -686.2029032
    1.430   -686.1816100   -686.1803630
    1.420   -686.1583032   -686.1569070
    1.410   -686.1340574   -686.1325024
    1.400   -686.1088404   -686.1071156
    1.395   -686.0958575   -686.0940431
    1.390   -686.0826197   -686.0807121
    1.385   -686.0691227   -686.0671181
    1.380   -686.0553625   -686.0532565
    1.375   -686.0413350   -686.0391229
    1.370   -686.0270361   -686.0247126
    1.365   -686.0124617   -686.0100210
    1.360   -685.9976080   -685.9950435
    1.355   -685.9824711   -685.9797751
    1.350   -685.9670471   -685.9642112
    1.345   -685.9513324   -685.9483469
    1.340   -685.9353236   -685.9321774
    1.335   -685.9190177   -685.9156976
    1.330   -685.9024116   -685.8989027
    1.325   -685.8855032   -685.8817877
    1.320   -685.8682906   -685.8643474
    1.315   -685.8507729   -685.8465768
    1.310   -685.8329502   -685.8284708
    1.305   -685.8148240   -685.8100242
    1.300   -685.7963975   -685.7912319
    1.295   -685.7776766   -685.7720886
    1.290   -685.7586704   -685.7525890
    1.285   -685.7393925   -685.7327279
    1.280   -685.7198623   -685.7125001
    1.275   -685.7001069   -685.6919000
    1.270   -685.6801621   -685.6709226
    1.265   -685.6600734   -685.6495624
    1.260   -685.6398930   -685.6278143
    1.255   -685.6196722   -685.6056734
    1.250   -685.5994439   -685.5831350
    1.245   -685.5792010   -685.5601951
    1.240   -685.5588826   -685.5368503
    1.235   -685.5383853   -685.5130971
    1.230   -685.5176012   -685.4889315
    1.225   -685.4964515   -685.4643487
    1.220   -685.4748967   -685.4393437
    1.215   -685.4538094   -685.4135627
    1.210   -685.4312503   -685.3879497
    1.205   -685.4083272   -685.3618733
    1.200   -685.3850313   -685.3353332
    1.195   -685.3613544   -685.3083287
    1.190   -685.3372891   -685.2808584
    1.185   -685.3128284   -685.2529205
    1.180   -685.2879655   -685.2245129
    1.175   -685.2626939   -685.1956334
    1.170   -685.2370073   -685.1662797
    1.165   -685.2108993   -685.1364494
    1.160   -685.1843637   -685.1061401
    1.155   -685.1573942   -685.0753495
    1.150   -685.1299845   -685.0440757
    1.145   -685.1021280   -685.0123177
    1.140   -685.0738182   -684.9800758
    1.135   -685.0450488   -684.9473548
    1.130   -685.0158129   -684.9141705
    1.125   -684.9861039   -684.8805812
    1.120   -684.9559151   -684.8468738
                                                  

 CI/aug-cc-pV5Z energy=   -684.846873797078

              CI           MULTI              CI           MULTI              CI           MULTI              CI           MULTI
   -684.84687380   -684.57851768   -684.88058116   -684.61295453   -684.91417048   -684.64689716   -684.94735481   -684.68034930
 **********************************************************************************************************************************
 Molpro calculation terminated
