
 Working directory              : /tmp/molpro/molpro.28u8CkK5de/
 Global scratch directory       : /tmp/molpro/molpro.28u8CkK5de/
 Wavefunction directory         : /home/molpro/wfu/
 Main file repository           : /tmp/molpro/molpro.28u8CkK5de/

 id        : gskim

 Nodes                nprocs
 localhost.localdomain    1
 GA implementation: MPI file
 GA implementation (serial work in mppx): MPI file

 Using customized tuning parameters: mindgm=1; mindgv=20; mindgc=4; mindgr=1; noblas=0; minvec=7
 default implementation of scratch files=df  


 Variables initialized (1009), CPU time= 0.00 sec
 ***,The CI for SiS   3Pi  excited states
 file,2,sis-3pi2b.wfu
 memory,1000,M
 geometry={angstrom;
 Si
 S,Si,r(i)}
 basis=av5z
 r=[2.026,2.00,1.99,1.98,1.97,1.96,1.957,1.95,1.94,1.93,1.92,1.91,1.90,1.89,1.88,1.87,1.86,1.85,1.84,1.83,1.82,1.81,1.80,1.79,1.78,1.77,1.76,1.75,1.74,1.73,1.72,1.71,1.70,1.69,1.68,1.67,1.66,1.65,1.64,1.63,1.62,1.61,1.60,1.59,1.58,1.57,1.56,1.55,1.54,1.53,1.52,1.51,1.50,1.49,1.48,1.47,1.46,1.45,1.44,1.43,1.42,1.41,1.40,1.395,1.39,1.385,1.38,1.375,1.37,1.365,1.36,1.355,1.35,1.345,1.34,1.335,1.33,1.325,1.32,1.315,1.31,1.305,1.30,1.295,1.29,1.285,1.28,1.275,1.27,1.265,1.26,1.255,1.25,1.245,1.24,1.235,1.23,1.225,1.22,1.215,1.21,1.205,1.20,1.195,1.19,1.185,1.18,1.175,1.17,1.165,1.16,1.155,1.15,1.145,1.14,1.135,1.13,1.125,1.12,1.115,1.11,1.105,1.10]
 do i=1,#r
 int;
 
 Text,CASSCF, state averaged orbitals for 3PI   state
 
 {multi;occ,10,4,4;close,6,2,2;start,2130.2;orbital,2140.2;natorb,,ci;wf,30,2,2;state,3;wf,30,3,2;state,3;maxiter,40;}
 {ci;occ,10,4,4;core,6,2,2;wf,30,2,2;state,2;maxiter,250;option,maxiti=250;option,nstati=3;orbital,ignore_error=1;}
 
 
 e1(i)=energy(1)
 e2(i)=energy(2)
 
 
 enddo
 
 table,r,e1,e2
 
 
 Commands initialized (810), CPU time= 0.01 sec, 661 directives.
 Default parameters read. Elapsed time= 0.05 sec

 Checking input...
 Passed
1


                                         ***  PROGRAM SYSTEM MOLPRO  ***
                                       Copyright, TTI GmbH Stuttgart, 2015
                                    Version 2021.2 linked Jul 16 2021 07:37:36


 **********************************************************************************************************************************
 LABEL *   The CI for SiS   3Pi  excited states                                          
  64 bit serial version                                                                  DATE: 07-Oct-24          TIME: 17:13:54  
 **********************************************************************************************************************************

 SHA1:             dade016a989826d9d859d6207854b99675d53db3
 **********************************************************************************************************************************

 Memory per process:      1000 MW
 Total memory per node:   1000 MW

 GA preallocation disabled
 GA check disabled

 Variable memory set to 1000.0 MW



 Permanent file  2  sis-3pi2b.wfu    assigned.  Implementation=df    Size= 17.78 MB


 PROGRAM * RESTART 


 Reading variables from file 2

 _FNUC           =      0.00000000
 _BASIS          =    AV5Z
 _NELEC          =     30.00000000
 _PROGRAM        =    CI
 _DMX(2)         =      0.00000000
 _DMY(2)         =      0.00000000
 _DMZ(1:2)       =     -0.72138906    -0.07319953
 _DMX_SCF        =      0.00000000
 _DMY_SCF        =      0.00000000
 _DMZ_SCF        =     -1.22055073
 _HOMO           =      4.20000000
 _EHOMO          =     -0.30219054
 _LUMO           =      4.30000000
 _ELUMO          =     -0.01632279
 _ENERGD(1:2)    =   -686.71603780  -686.60058853
 _ENERGD0(1:2)   =   -686.71603780  -686.60058853
 _ENERGD1(1:2)   =   -686.71648642  -686.60119302
 _ENERGD2(1:2)   =   -686.71648642  -686.60119302
 _ENERGD3(1:2)   =   -686.71603780  -686.60058853
 _ENERGD4(1:2)   =   -686.71648642  -686.60119302
 _ENERGP(1:2)    =   -686.71015137  -686.59497855
 _ENERGP0(1:2)   =   -686.71015137  -686.59497855
 _ENERGP1(1:2)   =   -686.71052810  -686.59548542
 _ENERGP2(1:2)   =   -686.71052810  -686.59548542
 _ENERGP3(1:2)   =   -686.71015137  -686.59497855
 _ENERGP4(1:2)   =   -686.71052810  -686.59548542
 _ENERGR(1:2)    =   -686.44422649  -686.33669941
 _ENERGRR(1:2)   =   -686.44331324  -686.33761265
 _ENERGY(1:2)    =   -686.68740374  -686.57339981
 _ENERGY_METHOD  =    CI
 _ENERGY_BASIS   =    aug-cc-pV5Z
 _ENERGY_AVRG    =   -686.36438000
 _ENUC           =     58.50725333
 _IPROC_MPP      =      0.00000000
 _IPROC_MPPX     =      0.00000000
 _ORBITAL        =   2140.20000000
 _ROOT(1:2)      =      1.00000000     2.00000000
 _STATUS         =      1.00000000
 _TROV           =     -0.00000000
 _DATE           =    05-Oct-24
 _LASTORB        =    MCSCF
 _OUTPUT         =    /home/molpro/SiS-3oct2024/dir-4/sis-3pi2mc.out
 _PGROUP         =    C2v 
 _TIME           =    04:17:16
 _C0(1:2)        =      0.89500740     0.89661136
 _C0R(1:2)       =      0.89353757     0.89455510
 _DMX_CC(1:6)    =     -0.00000000    -0.00000000    -0.00000000    -0.00000000    -0.00000000    -0.00000000
 _DMY_CC(1:6)    =     -0.00000000    -0.00000000    -0.00000000    -0.00000000    -0.00000000    -0.00000000
 _DMZ_CC(1:6)    =      2.52725272     2.52725272     2.52725272     2.52725272     2.52725272     2.52725272
 _DMX_NUC(1:6)   =      0.00000000     0.00000000     0.00000000     0.00000000     0.00000000     0.00000000
 _DMY_NUC(1:6)   =      0.00000000     0.00000000     0.00000000     0.00000000     0.00000000     0.00000000
 _DMZ_NUC(1:6)   =      0.03361004     0.03361004     0.03361004     0.03361004     0.03361004     0.03361004
 _SYM_CATION     =      1.00000000
 R               =      2.02600000
 _TRDMX          =     -0.00000000
 _TRDMY          =     -0.00000000
 _TRDMZ          =      0.06818986

 Geometry written to block  1 of record 700


 **********************************************************************************************************************************
 DATASETS  * FILE   NREC   LENGTH (MB)   RECORD NAMES
              2       7       17.78       500      610      700     1000      520     2100     2140   
                                          VAR    BASINP    GEOM     BASIS   MCVARS     RHF     MCSCF   

 PROGRAMS   *        TOTAL   RESTART
 CPU TIMES  *         0.10      0.01
 REAL TIME  *         0.12 SEC
 DISK USED  *        29.25 MB
 **********************************************************************************************************************************
 SETTING BASIS          =    AV5Z
 SETTING R(1)           =         2.02600000                                  
 SETTING R(2)           =         2.00000000                                  
 SETTING R(3)           =         1.99000000                                  
 SETTING R(4)           =         1.98000000                                  
 SETTING R(5)           =         1.97000000                                  
 SETTING R(6)           =         1.96000000                                  
 SETTING R(7)           =         1.95700000                                  
 SETTING R(8)           =         1.95000000                                  
 SETTING R(9)           =         1.94000000                                  
 SETTING R(10)          =         1.93000000                                  
 SETTING R(11)          =         1.92000000                                  
 SETTING R(12)          =         1.91000000                                  
 SETTING R(13)          =         1.90000000                                  
 SETTING R(14)          =         1.89000000                                  
 SETTING R(15)          =         1.88000000                                  
 SETTING R(16)          =         1.87000000                                  
 SETTING R(17)          =         1.86000000                                  
 SETTING R(18)          =         1.85000000                                  
 SETTING R(19)          =         1.84000000                                  
 SETTING R(20)          =         1.83000000                                  
 SETTING R(21)          =         1.82000000                                  
 SETTING R(22)          =         1.81000000                                  
 SETTING R(23)          =         1.80000000                                  
 SETTING R(24)          =         1.79000000                                  
 SETTING R(25)          =         1.78000000                                  
 SETTING R(26)          =         1.77000000                                  
 SETTING R(27)          =         1.76000000                                  
 SETTING R(28)          =         1.75000000                                  
 SETTING R(29)          =         1.74000000                                  
 SETTING R(30)          =         1.73000000                                  
 SETTING R(31)          =         1.72000000                                  
 SETTING R(32)          =         1.71000000                                  
 SETTING R(33)          =         1.70000000                                  
 SETTING R(34)          =         1.69000000                                  
 SETTING R(35)          =         1.68000000                                  
 SETTING R(36)          =         1.67000000                                  
 SETTING R(37)          =         1.66000000                                  
 SETTING R(38)          =         1.65000000                                  
 SETTING R(39)          =         1.64000000                                  
 SETTING R(40)          =         1.63000000                                  
 SETTING R(41)          =         1.62000000                                  
 SETTING R(42)          =         1.61000000                                  
 SETTING R(43)          =         1.60000000                                  
 SETTING R(44)          =         1.59000000                                  
 SETTING R(45)          =         1.58000000                                  
 SETTING R(46)          =         1.57000000                                  
 SETTING R(47)          =         1.56000000                                  
 SETTING R(48)          =         1.55000000                                  
 SETTING R(49)          =         1.54000000                                  
 SETTING R(50)          =         1.53000000                                  
 SETTING R(51)          =         1.52000000                                  
 SETTING R(52)          =         1.51000000                                  
 SETTING R(53)          =         1.50000000                                  
 SETTING R(54)          =         1.49000000                                  
 SETTING R(55)          =         1.48000000                                  
 SETTING R(56)          =         1.47000000                                  
 SETTING R(57)          =         1.46000000                                  
 SETTING R(58)          =         1.45000000                                  
 SETTING R(59)          =         1.44000000                                  
 SETTING R(60)          =         1.43000000                                  
 SETTING R(61)          =         1.42000000                                  
 SETTING R(62)          =         1.41000000                                  
 SETTING R(63)          =         1.40000000                                  
 SETTING R(64)          =         1.39500000                                  
 SETTING R(65)          =         1.39000000                                  
 SETTING R(66)          =         1.38500000                                  
 SETTING R(67)          =         1.38000000                                  
 SETTING R(68)          =         1.37500000                                  
 SETTING R(69)          =         1.37000000                                  
 SETTING R(70)          =         1.36500000                                  
 SETTING R(71)          =         1.36000000                                  
 SETTING R(72)          =         1.35500000                                  
 SETTING R(73)          =         1.35000000                                  
 SETTING R(74)          =         1.34500000                                  
 SETTING R(75)          =         1.34000000                                  
 SETTING R(76)          =         1.33500000                                  
 SETTING R(77)          =         1.33000000                                  
 SETTING R(78)          =         1.32500000                                  
 SETTING R(79)          =         1.32000000                                  
 SETTING R(80)          =         1.31500000                                  
 SETTING R(81)          =         1.31000000                                  
 SETTING R(82)          =         1.30500000                                  
 SETTING R(83)          =         1.30000000                                  
 SETTING R(84)          =         1.29500000                                  
 SETTING R(85)          =         1.29000000                                  
 SETTING R(86)          =         1.28500000                                  
 SETTING R(87)          =         1.28000000                                  
 SETTING R(88)          =         1.27500000                                  
 SETTING R(89)          =         1.27000000                                  
 SETTING R(90)          =         1.26500000                                  
 SETTING R(91)          =         1.26000000                                  
 SETTING R(92)          =         1.25500000                                  
 SETTING R(93)          =         1.25000000                                  
 SETTING R(94)          =         1.24500000                                  
 SETTING R(95)          =         1.24000000                                  
 SETTING R(96)          =         1.23500000                                  
 SETTING R(97)          =         1.23000000                                  
 SETTING R(98)          =         1.22500000                                  
 SETTING R(99)          =         1.22000000                                  
 SETTING R(100)         =         1.21500000                                  
 SETTING R(101)         =         1.21000000                                  
 SETTING R(102)         =         1.20500000                                  
 SETTING R(103)         =         1.20000000                                  
 SETTING R(104)         =         1.19500000                                  
 SETTING R(105)         =         1.19000000                                  
 SETTING R(106)         =         1.18500000                                  
 SETTING R(107)         =         1.18000000                                  
 SETTING R(108)         =         1.17500000                                  
 SETTING R(109)         =         1.17000000                                  
 SETTING R(110)         =         1.16500000                                  
 SETTING R(111)         =         1.16000000                                  
 SETTING R(112)         =         1.15500000                                  
 SETTING R(113)         =         1.15000000                                  
 SETTING R(114)         =         1.14500000                                  
 SETTING R(115)         =         1.14000000                                  
 SETTING R(116)         =         1.13500000                                  
 SETTING R(117)         =         1.13000000                                  
 SETTING R(118)         =         1.12500000                                  
 SETTING R(119)         =         1.12000000                                  
 SETTING R(120)         =         1.11500000                                  
 SETTING R(121)         =         1.11000000                                  
 SETTING R(122)         =         1.10500000                                  
 SETTING R(123)         =         1.10000000                                  

 DO I                   =         1.00000000   


 Using spherical harmonics

 Library entry SI     S aug-cc-pV5Z          selected for orbital group  1
 Library entry SI     P aug-cc-pV5Z          selected for orbital group  1
 Library entry SI     D aug-cc-pV5Z          selected for orbital group  1
 Library entry SI     F aug-cc-pV5Z          selected for orbital group  1
 Library entry SI     G aug-cc-pV5Z          selected for orbital group  1
 Library entry SI     H aug-cc-pV5Z          selected for orbital group  1
 Library entry S      S aug-cc-pV5Z          selected for orbital group  2
 Library entry S      P aug-cc-pV5Z          selected for orbital group  2
 Library entry S      D aug-cc-pV5Z          selected for orbital group  2
 Library entry S      F aug-cc-pV5Z          selected for orbital group  2
 Library entry S      G aug-cc-pV5Z          selected for orbital group  2
 Library entry S      H aug-cc-pV5Z          selected for orbital group  2


 PROGRAM * SEWARD (Integral evaluation for generally contracted gaussian basis sets)     Author: Roland Lindh, 1990

 Geometry written to block  1 of record 701

 Orientation using atomic masses  
 Molecule type: Linear
 Symmetry elements: X,Y
 Rotational constants:       8.2242399      8.2242399      0.0000000 GHz  (calculated with average atomic masses)

 Point group  C2v 



 ATOMIC COORDINATES

 NR  ATOM    CHARGE       X              Y              Z

   1  SI     14.00    0.000000000    0.000000000   -2.040791734
   2  S      16.00    0.000000000    0.000000000    1.787793395

 Bond lengths in Bohr (Angstrom)

 1-2  3.828585128
     ( 2.026000000)

 NUCLEAR CHARGE:                   30
 NUMBER OF PRIMITIVE AOS:         434
 NUMBER OF SYMMETRY AOS:          324
 NUMBER OF CONTRACTIONS:          262   (   96A1  +   64B1  +   64B2  +   38A2  )
 NUMBER OF INNER CORE ORBITALS:     2   (    2A1  +    0B1  +    0B2  +    0A2  )
 NUMBER OF OUTER CORE ORBITALS:     8   (    4A1  +    2B1  +    2B2  +    0A2  )
 NUMBER OF VALENCE ORBITALS:        8   (    4A1  +    2B1  +    2B2  +    0A2  )


 NUCLEAR REPULSION ENERGY   58.50725333

 EXTRA SYMMETRY OF AOS IN SYMMETRY 1:   1 1 1 1 1 1 1 1 1 1   1 1 1 1 1 1 2 1 2 1   2 1 2 1 2 1 2 1 2 1   2 1 2 1 3 2 1 3 2 1
                                        3 2 2 3 1 2 3 1 1 1   1 1 1 1 1 1 1 1 1 1   1 1 1 1 2 1 2 1 2 1   2 1 2 1 2 1 2 1 2 1
                                        2 1 3 2 1 3 2 1 3 2   2 3 1 2 3 1
 EXTRA SYMMETRY OF AOS IN SYMMETRY 2:   1 1 1 1 1 1 1 1 1 1   1 1 1 2 1 2 1 2 1 2   1 2 1 2 1 2 1 2 3 1   2 3 1 1 1 1 1 1 1 1
                                        1 1 1 1 1 2 1 2 1 2   1 2 1 2 1 2 1 2 1 2   3 1 2 3
 EXTRA SYMMETRY OF AOS IN SYMMETRY 3:   1 1 1 1 1 1 1 1 1 1   1 1 1 2 1 2 1 2 1 2   1 2 1 2 1 2 1 2 3 1   2 3 1 1 1 1 1 1 1 1
                                        1 1 1 1 1 2 1 2 1 2   1 2 1 2 1 2 1 2 1 2   3 1 2 3
 EXTRA SYMMETRY OF AOS IN SYMMETRY 4:   1 1 1 1 1 1 1 1 1 1   2 1 2 1 2 2 1 2 1 1   1 1 1 1 1 1 1 1 1 2   1 2 1 2 2 1 2 1

 Eigenvalues of metric

         1 0.703E-05 0.819E-05 0.178E-04 0.254E-04 0.401E-04 0.241E-03 0.364E-03 0.108E-02
         2 0.898E-05 0.100E-04 0.263E-03 0.180E-02 0.431E-02 0.975E-02 0.171E-01 0.254E-01
         3 0.898E-05 0.100E-04 0.263E-03 0.180E-02 0.431E-02 0.975E-02 0.171E-01 0.254E-01
         4 0.291E-02 0.126E-01 0.309E-01 0.551E-01 0.600E-01 0.688E-01 0.838E-01 0.136E+00


 Contracted 2-electron integrals neglected if value below      1.0D-12
 AO integral compression algorithm  1   Integral accuracy      1.0D-12

     636.748 MB (compressed) written to integral file ( 43.9%)


 NUMBER OF SORTED TWO-ELECTRON INTEGRALS:  150955559.     BUFFER LENGTH:  32768
 NUMBER OF SEGMENTS:  10  SEGMENT LENGTH:   15998976      RECORD LENGTH: 524288

 Memory used in sort:      16.56 MW

 SORT1 READ   181316810. AND WROTE   100587906. INTEGRALS IN    293 RECORDS. CPU TIME:     2.08 SEC, REAL TIME:     2.63 SEC
 SORT2 READ   100587906. AND WROTE   150955559. INTEGRALS IN   2429 RECORDS. CPU TIME:     1.65 SEC, REAL TIME:     1.93 SEC

 FILE SIZES:   FILE 1:   668.4 MBYTE,  FILE 4:  1229.0 MBYTE,   TOTAL:   1897.4 MBYTE

 OPERATOR DM      FOR CENTER  0  COORDINATES:    0.000000    0.000000    0.000000


 **********************************************************************************************************************************
 DATASETS  * FILE   NREC   LENGTH (MB)   RECORD NAMES
              1      20      522.51       500      700      610      701      900      950      970     1000      129      960   
                                          VAR     GEOM    BASINP    GEOM    SYMINP    ZMAT    AOBASIS   BASIS     P2S    ABASIS    
                                         1100     1400     1410     1200     1210     1080     1600     1650     1300     1700   
                                           S        T        V       H0       H01     AOSYM     SMH    MOLCAS    ERIS     OPER   

              2       8       18.53       500      610      700     1000      520     2100     2140      701   
                                          VAR    BASINP    GEOM     BASIS   MCVARS     RHF     MCSCF    GEOM   

 PROGRAMS   *        TOTAL       INT   RESTART
 CPU TIMES  *        40.76     40.65      0.01
 REAL TIME  *        42.20 SEC
 DISK USED  *         1.79 GB
 **********************************************************************************************************************************

 PROGRAM * MULTI (Direct Multiconfiguration SCF)       Authors: P.J. Knowles, H.-J. Werner (1984)
                                                                D.A. Kreplin, P.J. Knowles, H.-J. Werner (2019)

 Number of closed-shell orbitals:  10 (   6   2   2   0 )
 Number of active  orbitals:        8 (   4   2   2   0 )
 Number of external orbitals:     244 (  86  60  60  38 )

 State symmetry 1

 Number of active electrons:  10    Spin symmetry=Triplet   Space symmetry=2
 Number of states:             3
 Number of CSFs:             384   (496 determinants, 1960 intermediate states)

 State symmetry 2

 Number of active electrons:  10    Spin symmetry=Triplet   Space symmetry=3
 Number of states:             3
 Number of CSFs:             384   (496 determinants, 1960 intermediate states)

 Molecular orbitals read from record     2140.2  Type=MCSCF/NATURAL (state averaged)

 EXTRA SYMMETRY OF MOS IN SYMMETRY 1:   1 1 1 1 1 1 1 1 1 1   1 1 1 2 1 1 1 2 1 2   1 2 1 1 1 2 1 2 1 3   1 2 1 2 1 2 1 3 1 2
                                        1 2 1 1 1 2 2 1 3 3   1 2 1 2 1 2 1 2 3 1   3 1 2 1 1 2 1 2 2 1   1 3 3 1 2 1 2 1 2 1
                                        1 3 2 3 1 2 1 2 1 1   2 1 1 1 1 1
 EXTRA SYMMETRY OF MOS IN SYMMETRY 2:   1 1 1 1 1 1 1 1 2 1   1 1 1 2 1 1 2 2 1 1   1 1 2 2 1 1 1 2 1 3   1 2 1 2 1 2 1 3 2 1
                                        1 2 1 2 1 1 1 2 3 1   2 1 1 2 1 2 3 2 1 1   1 1 1 1
 EXTRA SYMMETRY OF MOS IN SYMMETRY 3:   1 1 1 1 1 1 1 1 2 1   1 1 1 2 1 1 2 2 1 1   1 1 2 2 1 1 1 2 1 3   1 2 1 2 1 2 1 3 2 1
                                        1 2 1 2 1 1 1 2 3 1   2 1 1 2 1 2 3 2 1 1   1 1 1 1
 EXTRA SYMMETRY OF MOS IN SYMMETRY 4:   1 1 1 1 1 1 2 1 1 1   2 1 1 1 1 2 2 1 1 1   1 2 2 1 1 1 1 2 2 1   1 1 2 1 2 1 1 1

 Wavefunction dump at record             2140.2

 Convergence thresholds  0.10E-04 (gradient)  0.10E-05 (energy)

 Weight factors for state symmetry  1:    0.16667   0.16667   0.16667
 Weight factors for state symmetry  2:    0.16667   0.16667   0.16667
 
 Number of orbital rotations:  1372  ( 32 closed/active, 756 closed/virtual, 0 active/active, 584 active/virtual )
 Total number of variables:    4348
 
  Second-order MCSCF: L-BFGS accelerated
 
 ITER  MIC  NCI  NEG     ENERGY(VAR)    ENERGY(PROJ) ENERGY CHANGE       GRAD(0)  GRAD(ORB)   GRAD(CI)      STEP      TIME
   1   10   38    0   -686.36438000    -686.36438000   -0.00000000    0.00000974 0.00000000 0.00000001  0.15E-07      1.72

 CONVERGENCE REACHED!  Final gradient:    0.00000000 ( 0.40E-08)
                       Final energy:   -686.36438000
 
 Results for state 1.2
 =====================
 !MCSCF STATE 1.2 Energy                      -686.444226490677
 Nuclear energy                                 58.50725333
 Kinetic energy                                686.44939665
 One electron energy                         -1067.01539271
 Two electron energy                           322.06391289
 Virial ratio                                    1.99999247
 
 !MCSCF STATE 1.2 Dipole moment                  0.00000000     0.00000000    -0.67541553
 Dipole moment /Debye                            0.00000000     0.00000000    -1.71673504
 
 Results for state 2.2
 =====================
 !MCSCF STATE 2.2 Energy                      -686.336699405536
 Nuclear energy                                 58.50725333
 Kinetic energy                                686.61116014
 One electron energy                         -1066.52520273
 Two electron energy                           321.68125000
 Virial ratio                                    1.99960027
 
 !MCSCF STATE 2.2 Dipole moment                  0.00000000     0.00000000    -0.13283617
 Dipole moment /Debye                            0.00000000     0.00000000    -0.33763587
 
 Results for state 3.2
 =====================
 !MCSCF STATE 3.2 Energy                      -686.312214093432
 Nuclear energy                                 58.50725333
 Kinetic energy                                686.63247586
 One electron energy                         -1065.88090474
 Two electron energy                           321.06143732
 Virial ratio                                    1.99953358
 
 !MCSCF STATE 3.2 Dipole moment                  0.00000000     0.00000000     0.48653098
 Dipole moment /Debye                            0.00000000     0.00000000     1.23663840
 
 Results for state 1.3
 =====================
 !MCSCF STATE 1.3 Energy                      -686.444226490677
 Nuclear energy                                 58.50725333
 Kinetic energy                                686.44939665
 One electron energy                         -1067.01539271
 Two electron energy                           322.06391289
 Virial ratio                                    1.99999247
 
 !MCSCF STATE 1.3 Dipole moment                  0.00000000     0.00000000    -0.67541553
 Dipole moment /Debye                            0.00000000     0.00000000    -1.71673504
 
 Results for state 2.3
 =====================
 !MCSCF STATE 2.3 Energy                      -686.336699405536
 Nuclear energy                                 58.50725333
 Kinetic energy                                686.61116014
 One electron energy                         -1066.52520273
 Two electron energy                           321.68125000
 Virial ratio                                    1.99960027
 
 !MCSCF STATE 2.3 Dipole moment                  0.00000000     0.00000000    -0.13283617
 Dipole moment /Debye                            0.00000000     0.00000000    -0.33763587
 
 Results for state 3.3
 =====================
 !MCSCF STATE 3.3 Energy                      -686.312214093432
 Nuclear energy                                 58.50725333
 Kinetic energy                                686.63247586
 One electron energy                         -1065.88090474
 Two electron energy                           321.06143732
 Virial ratio                                    1.99953358
 
 !MCSCF STATE 3.3 Dipole moment                  0.00000000     0.00000000     0.48653098
 Dipole moment /Debye                            0.00000000     0.00000000     1.23663840
 
 State-averaged charge density matrix saved on record 2140.2 (density set 1)
 
 Expectation values: (only non-zero values are shown)
 
 !MCSCF expec                       <1.2|DMZ|1.2>    -0.675415530456 au =    -1.716735042477 Debye
 !MCSCF expec                       <2.2|DMZ|2.2>    -0.132836170983 au =    -0.337635869109 Debye
 !MCSCF expec                       <3.2|DMZ|3.2>     0.486530979745 au =     1.236638401868 Debye
 !MCSCF expec                       <1.3|DMZ|1.3>    -0.675415530456 au =    -1.716735042477 Debye
 !MCSCF expec                       <2.3|DMZ|2.3>    -0.132836170983 au =    -0.337635869109 Debye
 !MCSCF expec                       <3.3|DMZ|3.3>     0.486530979745 au =     1.236638401866 Debye
 
 Transition values: (only non-zero values with the ground state are shown)
 
 !MCSCF trans                       <1.2|DMZ|2.2>     0.028400561910 au =     0.072187028070 Debye
 !MCSCF trans                       <1.2|DMZ|3.2>    -0.032338332391 au =    -0.082195842303 Debye
 
 
 Natural orbital dump (state averaged) at molpro section 2140.2 (Orbital set 2)
 
 Reoptimze the CI vectors with natural orbitals 
 
 CI Coefficients of symmetry 2
 =============================
 
 22a0 2a 20      0.91331411      0.15271690      0.03510377
 222a a0 20      0.01160067     -0.07187712      0.90914667
 22a0 2a ba     -0.24076388      0.64397682      0.11083917
 2a20 2a 20     -0.14709341     -0.55512596      0.13271777
 22a0 2b aa      0.06833737     -0.28034565     -0.10249405
 22b0 2a aa      0.06799115     -0.27191279     -0.01803250
 22a0 a2 20     -0.02450756     -0.14755374     -0.22188808
 2a20 2a ba     -0.10738288      0.11662849      0.01392895
 22a0 a0 22      0.01159044      0.04107353     -0.10970664
 22a0 2a ab      0.10443537     -0.09171838      0.00968738
 220a a2 20      0.01789183      0.01167125     -0.10269432
 22a0 2a 02     -0.10087374      0.09594694      0.01496931
 220a a0 22      0.00077227      0.00792905     -0.09783821
 22a2 a0 20      0.01185092     -0.00084953      0.08480896
 220a 2a 20      0.08044101     -0.04672306      0.06272547
 2a00 2a 22      0.05992386      0.07652802     -0.01072855
 22a0 a2 ba     -0.07240204      0.05786637      0.00384755
 222a 0a 20     -0.01142706      0.00630439     -0.06268760
 2a20 2b aa      0.00919396     -0.06078505     -0.00734293
 2baa a2 20     -0.02356902     -0.00245652     -0.06041624
 2a20 2a ab      0.06038928     -0.00555154      0.00100921
 2a20 a2 20     -0.05066505     -0.05047789     -0.05780782
 2aba 2a 20     -0.05698126     -0.04094936     -0.02521284
 2aba a2 20      0.00203814      0.01141597      0.05441765
 222a a0 02     -0.00143218      0.00465219     -0.05123316
 2baa a0 22      0.00026912      0.00570827     -0.05057628
 2b20 2a aa      0.03779964     -0.05029190     -0.00759522
 
 Energy:      -686.44422649   -686.33669941   -686.31221409
 
 
 CI Coefficients of symmetry 3
 =============================
 
 22a0 20 2a      0.91331411      0.15271690      0.03510377
 222a 20 a0      0.01160067     -0.07187712      0.90914667
 22a0 ba 2a     -0.24076388      0.64397682      0.11083917
 2a20 20 2a     -0.14709341     -0.55512596      0.13271777
 22a0 aa 2b      0.06833737     -0.28034565     -0.10249405
 22b0 aa 2a      0.06799115     -0.27191279     -0.01803250
 22a0 20 a2     -0.02450756     -0.14755374     -0.22188808
 2a20 ba 2a     -0.10738288      0.11662849      0.01392895
 22a0 22 a0      0.01159044      0.04107353     -0.10970664
 22a0 ab 2a      0.10443537     -0.09171838      0.00968738
 220a 20 a2      0.01789183      0.01167125     -0.10269432
 22a0 02 2a     -0.10087374      0.09594694      0.01496931
 220a 22 a0      0.00077227      0.00792905     -0.09783821
 22a2 20 a0      0.01185092     -0.00084953      0.08480896
 220a 20 2a      0.08044101     -0.04672306      0.06272547
 2a00 22 2a      0.05992386      0.07652802     -0.01072855
 22a0 ba a2     -0.07240204      0.05786637      0.00384755
 222a 20 0a     -0.01142706      0.00630439     -0.06268760
 2a20 aa 2b      0.00919396     -0.06078505     -0.00734293
 2baa 20 a2     -0.02356902     -0.00245652     -0.06041624
 2a20 ab 2a      0.06038928     -0.00555154      0.00100921
 2a20 20 a2     -0.05066505     -0.05047789     -0.05780782
 2aba 20 2a     -0.05698126     -0.04094936     -0.02521284
 2aba 20 a2      0.00203814      0.01141597      0.05441765
 222a 02 a0     -0.00143218      0.00465219     -0.05123316
 2baa 22 a0      0.00026912      0.00570827     -0.05057628
 2b20 aa 2a      0.03779964     -0.05029190     -0.00759522
 
 Energy:      -686.44422649   -686.33669941   -686.31221409
 


 **********************************************************************************************************************************
 DATASETS  * FILE   NREC   LENGTH (MB)   RECORD NAMES
              1      21      557.62       500      700      610      701      900      950      970     1000      129      960   
                                          VAR     GEOM    BASINP    GEOM    SYMINP    ZMAT    AOBASIS   BASIS     P2S    ABASIS    
                                         1100     1400     1410     1200     1210     1080     1600     1650     1300     1700   
                                           S        T        V       H0       H01     AOSYM     SMH    MOLCAS    ERIS     OPER   
                                         1380   
                                         JKOP   

              2       8       18.53       500      610      700     1000      520     2100     2140      701   
                                          VAR    BASINP    GEOM     BASIS   MCVARS     RHF     MCSCF    GEOM   

 PROGRAMS   *        TOTAL     MULTI       INT   RESTART
 CPU TIMES  *        43.64      2.88     40.65      0.01
 REAL TIME  *        45.41 SEC
 DISK USED  *         1.79 GB
 **********************************************************************************************************************************


 PROGRAM * CI (Multireference internally contracted CI)     Authors: H.-J. Werner, P.J. Knowles, 1987


 Convergence thresholds:  THRVAR = 1.00D-08  THRDEN = 1.00D-06

 Number of optimized states: 2  Roots:    1   2
 Number of reference states: 2  Roots:    1   2

 Program parameters:       NSTATE=  2    NSTATI=  3    NSTATR=  2    NCEPA = -1    NOKOP =  0    ITRDM =  0    ITRANS=  0
                           IDIP  =200    MAXIT =250    MAXITI=250    MAXDAV=  6    MAXVI =  9    NOSING=  0    NOPAIR=  0
                           MXSHRF=  5    IKCPS =  0    IOPTGM=  2    IOPTOR=  0    REFOPT=  1    IAVDEN=  0    IDELCG=  1
                           IREST =  0    NATORB=  0    IPUNRF=  0    ISEP  =  0    OLDDEN=  0    NSTPRI=  1    GPSFLI= -1
                           CLUSTE=  0    CLOSED=  1    ILSTYP=  0    ITRLS =  0    ICCSD =  0    LOCAL =  0    IBASO =  0
                           MP    =  0    ITEDIS=  2    INCDIS=  1    MAXDIS=  6    ITYDIS=  1    BRUECK=  0    IBRSTR=  3
                           INCBRK=  1    TRIPLE=  0    ICCTYP=  2    IHPPD =  0    ICCNEW=  0    I3EXT = -1    IDEB  =  0
                           IDLEIG=  1    IDFTYP=  1    IMP3  =  0    IPROCS=  0    NOINT =  0    NOREF =  1    IMP2G =  0
                           IHINT =  0    IFDIA =  0    ISPARO=  1    JKSYM =  0    CPHF  =  0    MP2D  = -1    DKINT =  0
                           NPKEX =  1    DRVK  =  1    HLSTRA=  1    WIGNER=  1    DIIS_C=  1    MAXIT_= 50    MATEL =  0
                           SPDEG =  1    MEMCPH=  0    DISM  =  1    KDCPMA=  5    IKDCP_=  0    IREDTH=  0    USECS =  0
                           IPROCC=  0    I3SAVE=  1    IKDCP =  1    USECI =  0    OLDPAI=  0    IPROCI=  0    KEEPCL=  1
                           DISCON=  0    SHIFTE=  0    DIISIN=  0    MOLCAS=  0    MEM_PT=  0    RECORD=  0    RS2C  =  0
                           KEXT  = -1    CIPT2 =  0    DECP0S=  0    I4EXT = -1    NATCOR=  0    RIMP2 =  0    DDCI  = -1
                           IPOLAR=  0

 Reference symmetry:                   2   Triplet 
 Number of electrons:                 30
 Maximum number of shells:             5
 Maximum number of spin couplings:    90

 Reference space:      192 conf      384 CSFs
 N elec internal:      728 conf     1512 CSFs
 N-1 el internal:     1016 conf     3696 CSFs
 N-2 el internal:     1016 conf     6857 CSFs

 Number of electrons in valence space:                     10
 Maximum number of open shell orbitals in reference space:  6
 Maximum number of open shell orbitals in internal spaces: 10


 Number of core orbitals:          10 (   6   2   2   0 )
 Number of active  orbitals:        8 (   4   2   2   0 )
 Number of external orbitals:     244 (  86  60  60  38 )

 Molecular orbitals read from record     2140.2  Type=MCSCF/NATURAL (state averaged)

 Valence orbitals related to previous ones by unitary transformation. Operators transformed.


 Number of p-space configurations:  33

 Reference wavefunction optimized for reference space (refopt=1)

 State     Reference Energy 
     1      -686.44422649
     2      -686.33669941
     3      -686.31221409

 Number of blocks in overlap matrix:     8   Smallest eigenvalue:  0.45D-02
 Number of N-2 electron functions:     128
 Number of N-1 electron functions:    3696

 Number of internal configurations:                  384
 Number of singly external configurations:        225456
 Number of doubly external configurations:        972960
 Total number of contracted configurations:      1198800
 Total number of uncontracted configurations:   51278176

 Diagonal Coupling coefficients finished.               Storage:  296869 words, CPU-Time:      0.05 seconds.
 Energy denominators for pairs finished in 1 passes.    Storage:  451087 words, CPU-time:      0.02 seconds.

  ITER. STATE  ROOT     SQ.NORM     CORR.ENERGY   TOTAL ENERGY   ENERGY CHANGE       DEN1      VAR(S)    VAR(P)      TIME
    1     1     1     1.00000000     0.00000000  -686.44422649     0.00000000    -0.25241439  0.60D-01  0.66D-01     0.51
    1     2     2     1.00000000     0.00000000  -686.33669941     0.00000000    -0.24462295  0.52D-01  0.68D-01     0.51
    2     1     1     1.10894994    -0.23498437  -686.67921086    -0.23498437    -0.00742254  0.22D-02  0.15D-02     8.60
    2     2     2     1.10475449    -0.23012625  -686.56682566    -0.23012625    -0.00551450  0.13D-02  0.12D-02     8.60
    3     1     1     1.11399404    -0.24255201  -686.68677850    -0.00756763    -0.00055897  0.17D-03  0.10D-03    16.58
    3     2     2     1.11159983    -0.23622697  -686.57292638    -0.00610072    -0.00037921  0.11D-03  0.74D-04    16.58
    4     1     1     1.11649830    -0.24311344  -686.68733993    -0.00056143    -0.00005591  0.17D-04  0.97D-05    24.50
    4     2     2     1.11440083    -0.23664554  -686.57334495    -0.00041857    -0.00004012  0.16D-04  0.58D-05    24.50
    5     1     1     1.11716367    -0.24316944  -686.68739593    -0.00005601    -0.00000678  0.19D-05  0.11D-05    32.41
    5     2     2     1.11505408    -0.23669133  -686.57339074    -0.00004579    -0.00000659  0.29D-05  0.74D-06    32.41
    6     1     1     1.11725520    -0.24317618  -686.68740267    -0.00000674    -0.00000100  0.33D-06  0.14D-06    40.43
    6     2     2     1.11518456    -0.23669851  -686.57339791    -0.00000718    -0.00000134  0.59D-06  0.14D-06    40.43
    7     1     1     1.11728456    -0.24317708  -686.68740357    -0.00000090    -0.00000015  0.51D-07  0.24D-07    48.47
    7     2     2     1.11525311    -0.23669995  -686.57339936    -0.00000144    -0.00000032  0.16D-06  0.27D-07    48.47
    8     1     1     1.11730203    -0.24317723  -686.68740372    -0.00000015    -0.00000002  0.77D-08  0.37D-08    56.51
    8     2     2     1.11528713    -0.23670029  -686.57339970    -0.00000035    -0.00000008  0.40D-07  0.61D-08    56.51
    9     1     1     1.11730912    -0.24317725  -686.68740374    -0.00000002    -0.00000000  0.16D-08  0.60D-09    64.50
    9     2     2     1.11529887    -0.23670038  -686.57339978    -0.00000008    -0.00000002  0.11D-07  0.15D-08    64.50
   10     1     1     1.11730919    -0.24317725  -686.68740374    -0.00000000    -0.00000000  0.15D-08  0.56D-09    70.12
   10     2     2     1.11531043    -0.23670041  -686.57339981    -0.00000003    -0.00000000  0.12D-08  0.33D-09    70.12


 =====================================
 Analysis of CPU times by interactions
 =====================================

       I      S      P

 I   0.3%
 S   0.1%   3.2%
 P   0.6%  12.8%  41.2%

 Initialization:   0.6%
 Other:           41.2%

 Total CPU:       70.1 seconds
 =====================================



 gnormi=  0.89500740  gnorms=  0.04376526  gnormp=  0.06122733  gnorm=  1.00000000
 ecorri= -0.21764544  ecorrs= -0.01064263  ecorrp= -0.01488918  ecorr= -0.24317725

 gnormi=  0.89661136  gnorms=  0.04156230  gnormp=  0.06182635  gnorm=  1.00000000
 ecorri= -0.21222827  ecorrs= -0.00983801  ecorrp= -0.01463413  ecorr= -0.23670041

 Reference coefficients greater than 0.0500000
 =============================================
 22/02/20           0.8849373   0.0563146
 22/02/\/          -0.1678426   0.7323589
 2/202/20          -0.1694213  -0.5196754
 22/0/220          -0.0322560  -0.1392538
 2/202/\/          -0.0774970   0.1167501
 22/02//\           0.1004085  -0.1031504
 22/02/02          -0.0832905   0.0900460
 222//020           0.0026425  -0.0771265
 22/0/2\/          -0.0541267   0.0687958
 2/002/22           0.0530488   0.0647053
 220/2/20           0.0626654  -0.0497367
 2/202//\           0.0545519  -0.0157874

 Coefficients of fixed reference functions:
 ==========================================

 State      Coefficients
 1           0.941546    0.083903
 2          -0.090376    0.941487

 Coefficients of rotated reference functions:
 ============================================

 State      Coefficients
 1           0.945271   -0.003225
 2          -0.003225    0.945809


 RESULTS FOR STATE 1.2
 =====================

 Coefficient of reference function:   C(0) = 0.94154566 (fixed)   0.94604831 (relaxed)   0.94527116 (rotated)

 Energy contributions of configuration classes

 CLASS          SQ.NORM        ECORR1        ECORR2
 +++++++++++++++++++++++++++++++++++++++++++++++++++
 Internals    0.00164496   -0.00003367   -0.14139997
 Singles      0.04897977   -0.06928584   -0.07255213
 Pairs        0.06852239   -0.01604406   -0.02922515
 Total        1.11914712   -0.08536357   -0.24317725
 +++++++++++++++++++++++++++++++++++++++++++++++++++


 Reference energy                    -686.44331324
 Nuclear energy                        58.50725333
 Kinetic energy                       686.63077517
 One electron energy                -1067.01349568
 Two electron energy                  321.81883861
 Virial quotient                       -1.00008247
 Correlation energy                    -0.24409050
 !MRCI STATE 1.2 Energy              -686.687403743184

 Properties without orbital relaxation:

 !MRCI STATE 1.2 Dipole moment          0.00000000     0.00000000    -0.72138907
 Dipole moment /Debye                   0.00000000     0.00000000    -1.83358811

 Cluster corrected energies          -686.71648642 (Davidson, fixed reference)
 Cluster corrected energies          -686.71603780 (Davidson, relaxed reference)
 Cluster corrected energies          -686.71648642 (Davidson, rotated reference)

 Cluster corrected energies          -686.71052810 (Pople, fixed reference)
 Cluster corrected energies          -686.71015137 (Pople, relaxed reference)
 Cluster corrected energies          -686.71052810 (Pople, rotated reference)



 RESULTS FOR STATE 2.2
 =====================

 Coefficient of reference function:   C(0) = 0.94148696 (fixed)   0.94689564 (relaxed)   0.94580923 (rotated)

 Energy contributions of configuration classes

 CLASS          SQ.NORM        ECORR1        ECORR2
 +++++++++++++++++++++++++++++++++++++++++++++++++++
 Internals    0.00229864   -0.00003365   -0.00200644
 Singles      0.04646142   -0.06296399   -0.06616276
 Pairs        0.06911407   -0.17203756   -0.16853120
 Total        1.11787413   -0.23503520   -0.23670041
 +++++++++++++++++++++++++++++++++++++++++++++++++++


 Reference energy                    -686.33761265
 Nuclear energy                        58.50725333
 Kinetic energy                       686.76372943
 One electron energy                -1066.53913433
 Two electron energy                  321.45848119
 Virial quotient                       -0.99972286
 Correlation energy                    -0.23578716
 !MRCI STATE 2.2 Energy              -686.573399813071

 Properties without orbital relaxation:

 !MRCI STATE 2.2 Dipole moment          0.00000000     0.00000000    -0.07319953
 Dipole moment /Debye                   0.00000000     0.00000000    -0.18605464

 Cluster corrected energies          -686.60119302 (Davidson, fixed reference)
 Cluster corrected energies          -686.60058853 (Davidson, relaxed reference)
 Cluster corrected energies          -686.60119302 (Davidson, rotated reference)

 Cluster corrected energies          -686.59548542 (Pople, fixed reference)
 Cluster corrected energies          -686.59497855 (Pople, relaxed reference)
 Cluster corrected energies          -686.59548542 (Pople, rotated reference)


 !MRCI trans          <2.2|DMZ|1.2>     0.068189863016 au =     0.173321343829 Debye


 **********************************************************************************************************************************
 DATASETS  * FILE   NREC   LENGTH (MB)   RECORD NAMES
              1      21      557.62       500      700      610      701      900      950      970     1000      129      960   
                                          VAR     GEOM    BASINP    GEOM    SYMINP    ZMAT    AOBASIS   BASIS     P2S    ABASIS    
                                         1100     1400     1410     1200     1210     1080     1600     1650     1300     1700   
                                           S        T        V       H0       H01     AOSYM     SMH    MOLCAS    ERIS     OPER   
                                         1380   
                                         JKOP   

              2       8       18.53       500      610      700     1000      520     2100     2140      701   
                                          VAR    BASINP    GEOM     BASIS   MCVARS     RHF     MCSCF    GEOM   

 PROGRAMS   *        TOTAL        CI     MULTI       INT   RESTART
 CPU TIMES  *       114.04     70.39      2.88     40.65      0.01
 REAL TIME  *       118.62 SEC
 DISK USED  *         1.79 GB
 **********************************************************************************************************************************
 SETTING E1(1)          =      -686.68740374  AU                              
 SETTING E2(1)          =      -686.57339981  AU                              

 DO I                   =         2.00000000   


 Using spherical harmonics

 Library entry SI     S aug-cc-pV5Z          selected for orbital group  1
 Library entry SI     P aug-cc-pV5Z          selected for orbital group  1
 Library entry SI     D aug-cc-pV5Z          selected for orbital group  1
 Library entry SI     F aug-cc-pV5Z          selected for orbital group  1
 Library entry SI     G aug-cc-pV5Z          selected for orbital group  1
 Library entry SI     H aug-cc-pV5Z          selected for orbital group  1
 Library entry S      S aug-cc-pV5Z          selected for orbital group  2
 Library entry S      P aug-cc-pV5Z          selected for orbital group  2
 Library entry S      D aug-cc-pV5Z          selected for orbital group  2
 Library entry S      F aug-cc-pV5Z          selected for orbital group  2
 Library entry S      G aug-cc-pV5Z          selected for orbital group  2
 Library entry S      H aug-cc-pV5Z          selected for orbital group  2


 PROGRAM * SEWARD (Integral evaluation for generally contracted gaussian basis sets)     Author: Roland Lindh, 1990

 Geometry written to block  1 of record 701

 Orientation using atomic masses  
 Molecule type: Linear
 Symmetry elements: X,Y
 Rotational constants:       8.4394600      8.4394600      0.0000000 GHz  (calculated with average atomic masses)

 Point group  C2v 



 ATOMIC COORDINATES

 NR  ATOM    CHARGE       X              Y              Z

   1  SI     14.00    0.000000000    0.000000000   -2.014601909
   2  S      16.00    0.000000000    0.000000000    1.764850340

 Bond lengths in Bohr (Angstrom)

 1-2  3.779452249
     ( 2.000000000)

 NUCLEAR CHARGE:                   30
 NUMBER OF PRIMITIVE AOS:         434
 NUMBER OF SYMMETRY AOS:          324
 NUMBER OF CONTRACTIONS:          262   (   96A1  +   64B1  +   64B2  +   38A2  )
 NUMBER OF INNER CORE ORBITALS:     2   (    2A1  +    0B1  +    0B2  +    0A2  )
 NUMBER OF OUTER CORE ORBITALS:     8   (    4A1  +    2B1  +    2B2  +    0A2  )
 NUMBER OF VALENCE ORBITALS:        8   (    4A1  +    2B1  +    2B2  +    0A2  )


 NUCLEAR REPULSION ENERGY   59.26784762

 EXTRA SYMMETRY OF AOS IN SYMMETRY 1:   1 1 1 1 1 1 1 1 1 1   1 1 1 1 1 1 2 1 2 1   2 1 2 1 2 1 2 1 2 1   2 1 2 1 3 2 1 3 2 1
                                        3 2 2 3 1 2 3 1 1 1   1 1 1 1 1 1 1 1 1 1   1 1 1 1 2 1 2 1 2 1   2 1 2 1 2 1 2 1 2 1
                                        2 1 3 2 1 3 2 1 3 2   2 3 1 2 3 1
 EXTRA SYMMETRY OF AOS IN SYMMETRY 2:   1 1 1 1 1 1 1 1 1 1   1 1 1 2 1 2 1 2 1 2   1 2 1 2 1 2 1 2 3 1   2 3 1 1 1 1 1 1 1 1
                                        1 1 1 1 1 2 1 2 1 2   1 2 1 2 1 2 1 2 1 2   3 1 2 3
 EXTRA SYMMETRY OF AOS IN SYMMETRY 3:   1 1 1 1 1 1 1 1 1 1   1 1 1 2 1 2 1 2 1 2   1 2 1 2 1 2 1 2 3 1   2 3 1 1 1 1 1 1 1 1
                                        1 1 1 1 1 2 1 2 1 2   1 2 1 2 1 2 1 2 1 2   3 1 2 3
 EXTRA SYMMETRY OF AOS IN SYMMETRY 4:   1 1 1 1 1 1 1 1 1 1   2 1 2 1 2 2 1 2 1 1   1 1 1 1 1 1 1 1 1 2   1 2 1 2 2 1 2 1

 Eigenvalues of metric

         1 0.690E-05 0.822E-05 0.175E-04 0.251E-04 0.390E-04 0.229E-03 0.349E-03 0.102E-02
         2 0.897E-05 0.991E-05 0.252E-03 0.174E-02 0.399E-02 0.939E-02 0.156E-01 0.253E-01
         3 0.897E-05 0.991E-05 0.252E-03 0.174E-02 0.399E-02 0.939E-02 0.156E-01 0.253E-01
         4 0.266E-02 0.119E-01 0.298E-01 0.544E-01 0.597E-01 0.677E-01 0.821E-01 0.135E+00


 Contracted 2-electron integrals neglected if value below      1.0D-12
 AO integral compression algorithm  1   Integral accuracy      1.0D-12

     638.321 MB (compressed) written to integral file ( 44.0%)


 NUMBER OF SORTED TWO-ELECTRON INTEGRALS:  150955559.     BUFFER LENGTH:  32768
 NUMBER OF SEGMENTS:  10  SEGMENT LENGTH:   15998976      RECORD LENGTH: 524288

 Memory used in sort:      16.56 MW

 SORT1 READ   181316810. AND WROTE   100590840. INTEGRALS IN    293 RECORDS. CPU TIME:     2.08 SEC, REAL TIME:     2.64 SEC
 SORT2 READ   100590840. AND WROTE   150955559. INTEGRALS IN   2435 RECORDS. CPU TIME:     1.61 SEC, REAL TIME:     1.92 SEC

 FILE SIZES:   FILE 1:   670.0 MBYTE,  FILE 4:  1229.0 MBYTE,   TOTAL:   1899.0 MBYTE

 OPERATOR DM      FOR CENTER  0  COORDINATES:    0.000000    0.000000    0.000000


 **********************************************************************************************************************************
 DATASETS  * FILE   NREC   LENGTH (MB)   RECORD NAMES
              1      20      523.89       500      700      610      701      900      950      970     1000      129      960   
                                          VAR     GEOM    BASINP    GEOM    SYMINP    ZMAT    AOBASIS   BASIS     P2S    ABASIS    
                                         1100     1400     1410     1200     1210     1080     1600     1650     1300     1700   
                                           S        T        V       H0       H01     AOSYM     SMH    MOLCAS    ERIS     OPER   

              2       8       18.53       500      610      700     1000      520     2100     2140      701   
                                          VAR    BASINP    GEOM     BASIS   MCVARS     RHF     MCSCF    GEOM   

 PROGRAMS   *        TOTAL       INT        CI     MULTI       INT   RESTART
 CPU TIMES  *       155.85     41.81     70.39      2.88     40.65      0.01
 REAL TIME  *       161.81 SEC
 DISK USED  *         1.79 GB
 **********************************************************************************************************************************

 PROGRAM * MULTI (Direct Multiconfiguration SCF)       Authors: P.J. Knowles, H.-J. Werner (1984)
                                                                D.A. Kreplin, P.J. Knowles, H.-J. Werner (2019)

 Number of closed-shell orbitals:  10 (   6   2   2   0 )
 Number of active  orbitals:        8 (   4   2   2   0 )
 Number of external orbitals:     244 (  86  60  60  38 )

 State symmetry 1

 Number of active electrons:  10    Spin symmetry=Triplet   Space symmetry=2
 Number of states:             3
 Number of CSFs:             384   (496 determinants, 1960 intermediate states)

 State symmetry 2

 Number of active electrons:  10    Spin symmetry=Triplet   Space symmetry=3
 Number of states:             3
 Number of CSFs:             384   (496 determinants, 1960 intermediate states)

 Molecular orbitals read from record     2140.2  Type=MCSCF/NATURAL (state averaged)

 EXTRA SYMMETRY OF MOS IN SYMMETRY 1:   1 1 1 1 1 1 1 1 1 1   1 1 1 2 1 1 1 2 1 2   1 2 1 1 1 2 1 2 1 3   1 2 1 2 1 2 1 3 1 2
                                        1 2 1 1 1 2 2 1 3 3   1 2 1 2 1 2 1 2 3 1   3 1 2 1 1 2 1 2 2 1   1 3 3 1 2 1 2 1 2 1
                                        1 3 2 3 1 2 1 2 1 1   2 1 1 1 1 1
 EXTRA SYMMETRY OF MOS IN SYMMETRY 2:   1 1 1 1 1 1 1 1 2 1   1 1 1 2 1 1 2 2 1 1   1 1 2 2 1 1 1 2 1 3   1 2 1 2 1 2 1 3 2 1
                                        1 2 1 2 1 1 1 2 3 1   2 1 1 2 1 2 3 2 1 1   1 1 1 1
 EXTRA SYMMETRY OF MOS IN SYMMETRY 3:   1 1 1 1 1 1 1 1 2 1   1 1 1 2 1 1 2 2 1 1   1 1 2 2 1 1 1 2 1 3   1 2 1 2 1 2 1 3 2 1
                                        1 2 1 2 1 1 1 2 3 1   2 1 1 2 1 2 3 2 1 1   1 1 1 1
 EXTRA SYMMETRY OF MOS IN SYMMETRY 4:   1 1 1 1 1 1 2 1 1 1   2 1 1 1 1 2 2 1 1 1   1 2 2 1 1 1 1 2 2 1   1 1 2 1 2 1 1 1

 Wavefunction dump at record             2140.2

 Convergence thresholds  0.10E-04 (gradient)  0.10E-05 (energy)

 Weight factors for state symmetry  1:    0.16667   0.16667   0.16667
 Weight factors for state symmetry  2:    0.16667   0.16667   0.16667
 
 Number of orbital rotations:  1372  ( 32 closed/active, 756 closed/virtual, 0 active/active, 584 active/virtual )
 Total number of variables:    4348
 
  Second-order MCSCF: L-BFGS accelerated
 
 ITER  MIC  NCI  NEG     ENERGY(VAR)    ENERGY(PROJ) ENERGY CHANGE       GRAD(0)  GRAD(ORB)   GRAD(CI)      STEP      TIME
   1   11   42    0   -686.36155930    -686.36169470   -0.00013540    0.01420885 0.00002340 0.00002017  0.55E-01      1.80
   2   14   38    0   -686.36169396    -686.36169397   -0.00000002    0.00013737 0.00000013 0.00000006  0.78E-03      3.75
   3    4    8    0   -686.36169397    -686.36169397   -0.00000000    0.00000006 0.00000000 0.00000004  0.36E-06      5.27

 CONVERGENCE REACHED!  Final gradient:    0.00000001 ( 0.12E-07)
                       Final energy:   -686.36169397
 
 Results for state 1.2
 =====================
 !MCSCF STATE 1.2 Energy                      -686.443384946925
 Nuclear energy                                 59.26784762
 Kinetic energy                                686.50458102
 One electron energy                         -1068.57522472
 Two electron energy                           322.86399215
 Virial ratio                                    1.99991086
 
 !MCSCF STATE 1.2 Dipole moment                  0.00000000     0.00000000    -0.65940093
 Dipole moment /Debye                            0.00000000     0.00000000    -1.67602999
 
 Results for state 2.2
 =====================
 !MCSCF STATE 2.2 Energy                      -686.332844430627
 Nuclear energy                                 59.26784762
 Kinetic energy                                686.66004914
 One electron energy                         -1068.04086164
 Two electron energy                           322.44016959
 Virial ratio                                    1.99952348
 
 !MCSCF STATE 2.2 Dipole moment                  0.00000000     0.00000000    -0.07796527
 Dipole moment /Debye                            0.00000000     0.00000000    -0.19816794
 
 Results for state 3.2
 =====================
 !MCSCF STATE 3.2 Energy                      -686.308852547032
 Nuclear energy                                 59.26784762
 Kinetic energy                                686.62915660
 One electron energy                         -1067.22162854
 Two electron energy                           321.64492838
 Virial ratio                                    1.99953351
 
 !MCSCF STATE 3.2 Dipole moment                  0.00000000     0.00000000     0.50701282
 Dipole moment /Debye                            0.00000000     0.00000000     1.28869806
 
 Results for state 1.3
 =====================
 !MCSCF STATE 1.3 Energy                      -686.443384946925
 Nuclear energy                                 59.26784762
 Kinetic energy                                686.50458102
 One electron energy                         -1068.57522472
 Two electron energy                           322.86399215
 Virial ratio                                    1.99991086
 
 !MCSCF STATE 1.3 Dipole moment                  0.00000000     0.00000000    -0.65940093
 Dipole moment /Debye                            0.00000000     0.00000000    -1.67602999
 
 Results for state 2.3
 =====================
 !MCSCF STATE 2.3 Energy                      -686.332844430627
 Nuclear energy                                 59.26784762
 Kinetic energy                                686.66004914
 One electron energy                         -1068.04086164
 Two electron energy                           322.44016959
 Virial ratio                                    1.99952348
 
 !MCSCF STATE 2.3 Dipole moment                  0.00000000     0.00000000    -0.07796527
 Dipole moment /Debye                            0.00000000     0.00000000    -0.19816794
 
 Results for state 3.3
 =====================
 !MCSCF STATE 3.3 Energy                      -686.308852547032
 Nuclear energy                                 59.26784762
 Kinetic energy                                686.62915660
 One electron energy                         -1067.22162854
 Two electron energy                           321.64492838
 Virial ratio                                    1.99953351
 
 !MCSCF STATE 3.3 Dipole moment                  0.00000000     0.00000000     0.50701282
 Dipole moment /Debye                            0.00000000     0.00000000     1.28869806
 
 State-averaged charge density matrix saved on record 2140.2 (density set 1)
 
 Expectation values: (only non-zero values are shown)
 
 !MCSCF expec                       <1.2|DMZ|1.2>    -0.659400930214 au =    -1.676029988792 Debye
 !MCSCF expec                       <2.2|DMZ|2.2>    -0.077965265379 au =    -0.198167938308 Debye
 !MCSCF expec                       <3.2|DMZ|3.2>     0.507012824015 au =     1.288698057303 Debye
 !MCSCF expec                       <1.3|DMZ|1.3>    -0.659400930214 au =    -1.676029988793 Debye
 !MCSCF expec                       <2.3|DMZ|2.3>    -0.077965265379 au =    -0.198167938308 Debye
 !MCSCF expec                       <3.3|DMZ|3.3>     0.507012824014 au =     1.288698057303 Debye
 
 Transition values: (only non-zero values with the ground state are shown)
 
 !MCSCF trans                       <1.2|DMZ|2.2>     0.048174341851 au =     0.122446963498 Debye
 !MCSCF trans                       <1.2|DMZ|3.2>    -0.030754553259 au =    -0.078170277280 Debye
 
 
 Natural orbital dump (state averaged) at molpro section 2140.2 (Orbital set 2)
 
 Reoptimze the CI vectors with natural orbitals 
 
 CI Coefficients of symmetry 2
 =============================
 
 22a0 2a 20      0.91576520      0.15059841      0.03292627
 222a a0 20      0.01323326     -0.07084670      0.90941433
 22a0 2a ba     -0.23962651      0.63993888      0.11324700
 2a20 2a 20     -0.14069447     -0.56495181      0.13328499
 22a0 2b aa      0.06644576     -0.27778252     -0.10261219
 22b0 2a aa      0.06900329     -0.27096138     -0.02010580
 22a0 a2 20     -0.02633400     -0.14609542     -0.22126438
 2a20 2a ba     -0.10679036      0.11183215      0.01573871
 22a0 a0 22      0.01139771      0.04049211     -0.10918118
 220a a2 20      0.01607815      0.01077021     -0.10446675
 22a0 2a ab      0.10417746     -0.09119498      0.00947100
 22a0 2a 02     -0.10006950      0.09370963      0.01498038
 220a a0 22      0.00061885      0.00800128     -0.09903284
 22a2 a0 20      0.01229372     -0.00093408      0.08434449
 220a 2a 20      0.07948365     -0.04694402      0.06429529
 2a00 2a 22      0.05921714      0.07850054     -0.01112912
 22a0 a2 ba     -0.07197632      0.05671802      0.00400722
 222a 0a 20     -0.01119207      0.00642100     -0.06278769
 2a20 2a ab      0.06052057     -0.00286428      0.00008506
 2a20 2b aa      0.00915175     -0.06041542     -0.00809398
 2baa a2 20     -0.02216919     -0.00154335     -0.05903672
 2a20 a2 20     -0.05079568     -0.05284180     -0.05598567
 2aba 2a 20     -0.05447947     -0.04130571     -0.02516138
 2aba a2 20      0.00190449      0.01014679      0.05361374
 222a a0 02     -0.00148783      0.00457768     -0.05035700
 
 Energy:      -686.44338495   -686.33284443   -686.30885255
 
 
 CI Coefficients of symmetry 3
 =============================
 
 22a0 20 2a      0.91576520      0.15059841      0.03292627
 222a 20 a0      0.01323326     -0.07084670      0.90941433
 22a0 ba 2a     -0.23962651      0.63993888      0.11324700
 2a20 20 2a     -0.14069447     -0.56495181      0.13328499
 22a0 aa 2b      0.06644576     -0.27778252     -0.10261219
 22b0 aa 2a      0.06900329     -0.27096138     -0.02010580
 22a0 20 a2     -0.02633400     -0.14609542     -0.22126438
 2a20 ba 2a     -0.10679036      0.11183215      0.01573871
 22a0 22 a0      0.01139771      0.04049211     -0.10918118
 220a 20 a2      0.01607815      0.01077021     -0.10446675
 22a0 ab 2a      0.10417746     -0.09119498      0.00947100
 22a0 02 2a     -0.10006950      0.09370963      0.01498038
 220a 22 a0      0.00061885      0.00800128     -0.09903284
 22a2 20 a0      0.01229372     -0.00093408      0.08434449
 220a 20 2a      0.07948365     -0.04694402      0.06429529
 2a00 22 2a      0.05921714      0.07850054     -0.01112912
 22a0 ba a2     -0.07197632      0.05671802      0.00400722
 222a 20 0a     -0.01119207      0.00642100     -0.06278769
 2a20 ab 2a      0.06052057     -0.00286428      0.00008506
 2a20 aa 2b      0.00915175     -0.06041542     -0.00809398
 2baa 20 a2     -0.02216919     -0.00154335     -0.05903672
 2a20 20 a2     -0.05079568     -0.05284180     -0.05598567
 2aba 20 2a     -0.05447947     -0.04130571     -0.02516138
 2aba 20 a2      0.00190449      0.01014679      0.05361374
 222a 02 a0     -0.00148783      0.00457768     -0.05035700
 
 Energy:      -686.44338495   -686.33284443   -686.30885255
 


 **********************************************************************************************************************************
 DATASETS  * FILE   NREC   LENGTH (MB)   RECORD NAMES
              1      21      559.00       500      700      610      701      900      950      970     1000      129      960   
                                          VAR     GEOM    BASINP    GEOM    SYMINP    ZMAT    AOBASIS   BASIS     P2S    ABASIS    
                                         1100     1400     1410     1200     1210     1080     1600     1650     1300     1700   
                                           S        T        V       H0       H01     AOSYM     SMH    MOLCAS    ERIS     OPER   
                                         1380   
                                         JKOP   

              2       8       18.53       500      610      700     1000      520     2100     2140      701   
                                          VAR    BASINP    GEOM     BASIS   MCVARS     RHF     MCSCF    GEOM   

 PROGRAMS   *        TOTAL     MULTI       INT        CI     MULTI       INT   RESTART
 CPU TIMES  *       161.97      6.12     41.81     70.39      2.88     40.65      0.01
 REAL TIME  *       168.65 SEC
 DISK USED  *         1.79 GB
 **********************************************************************************************************************************


 PROGRAM * CI (Multireference internally contracted CI)     Authors: H.-J. Werner, P.J. Knowles, 1987


 Convergence thresholds:  THRVAR = 1.00D-08  THRDEN = 1.00D-06

 Number of optimized states: 2  Roots:    1   2
 Number of reference states: 2  Roots:    1   2

 Program parameters:       NSTATE=  2    NSTATI=  3    NSTATR=  2    NCEPA = -1    NOKOP =  0    ITRDM =  0    ITRANS=  0
                           IDIP  =200    MAXIT =250    MAXITI=250    MAXDAV=  6    MAXVI =  9    NOSING=  0    NOPAIR=  0
                           MXSHRF=  5    IKCPS =  0    IOPTGM=  2    IOPTOR=  0    REFOPT=  1    IAVDEN=  0    IDELCG=  1
                           IREST =  0    NATORB=  0    IPUNRF=  0    ISEP  =  0    OLDDEN=  0    NSTPRI=  1    GPSFLI= -1
                           CLUSTE=  0    CLOSED=  1    ILSTYP=  0    ITRLS =  0    ICCSD =  0    LOCAL =  0    IBASO =  0
                           MP    =  0    ITEDIS=  2    INCDIS=  1    MAXDIS=  6    ITYDIS=  1    BRUECK=  0    IBRSTR=  3
                           INCBRK=  1    TRIPLE=  0    ICCTYP=  2    IHPPD =  0    ICCNEW=  0    I3EXT = -1    IDEB  =  0
                           IDLEIG=  1    IDFTYP=  1    IMP3  =  0    IPROCS=  0    NOINT =  0    NOREF =  1    IMP2G =  0
                           IHINT =  0    IFDIA =  0    ISPARO=  1    JKSYM =  0    CPHF  =  0    MP2D  = -1    DKINT =  0
                           NPKEX =  1    DRVK  =  1    HLSTRA=  1    WIGNER=  1    DIIS_C=  1    MAXIT_= 50    MATEL =  0
                           SPDEG =  1    MEMCPH=  0    DISM  =  1    KDCPMA=  5    IKDCP_=  0    IREDTH=  0    USECS =  0
                           IPROCC=  0    I3SAVE=  1    IKDCP =  1    USECI =  0    OLDPAI=  0    IPROCI=  0    KEEPCL=  1
                           DISCON=  0    SHIFTE=  0    DIISIN=  0    MOLCAS=  0    MEM_PT=  0    RECORD=  0    RS2C  =  0
                           KEXT  = -1    CIPT2 =  0    DECP0S=  0    I4EXT = -1    NATCOR=  0    RIMP2 =  0    DDCI  = -1
                           IPOLAR=  0

 Reference symmetry:                   2   Triplet 
 Number of electrons:                 30
 Maximum number of shells:             5
 Maximum number of spin couplings:    90

 Reference space:      192 conf      384 CSFs
 N elec internal:      728 conf     1512 CSFs
 N-1 el internal:     1016 conf     3696 CSFs
 N-2 el internal:     1016 conf     6857 CSFs

 Number of electrons in valence space:                     10
 Maximum number of open shell orbitals in reference space:  6
 Maximum number of open shell orbitals in internal spaces: 10


 Number of core orbitals:          10 (   6   2   2   0 )
 Number of active  orbitals:        8 (   4   2   2   0 )
 Number of external orbitals:     244 (  86  60  60  38 )

 Molecular orbitals read from record     2140.2  Type=MCSCF/NATURAL (state averaged)

 Valence orbitals related to previous ones by unitary transformation. Operators transformed.


 Number of p-space configurations:  32

 Reference wavefunction optimized for reference space (refopt=1)

 State     Reference Energy 
     1      -686.44338495
     2      -686.33284443
     3      -686.30885255

 Number of blocks in overlap matrix:     8   Smallest eigenvalue:  0.43D-02
 Number of N-2 electron functions:     128
 Number of N-1 electron functions:    3696

 Number of internal configurations:                  384
 Number of singly external configurations:        225456
 Number of doubly external configurations:        972960
 Total number of contracted configurations:      1198800
 Total number of uncontracted configurations:   51278176

 Diagonal Coupling coefficients finished.               Storage:  296869 words, CPU-Time:      0.05 seconds.
 Energy denominators for pairs finished in 1 passes.    Storage:  451087 words, CPU-time:      0.02 seconds.

  ITER. STATE  ROOT     SQ.NORM     CORR.ENERGY   TOTAL ENERGY   ENERGY CHANGE       DEN1      VAR(S)    VAR(P)      TIME
    1     1     1     1.00000000     0.00000000  -686.44338495     0.00000000    -0.25377717  0.60D-01  0.66D-01     0.51
    1     2     2     1.00000000     0.00000000  -686.33284443     0.00000000    -0.24575087  0.51D-01  0.68D-01     0.51
    2     1     1     1.10900925    -0.23579482  -686.67917977    -0.23579482    -0.00752412  0.22D-02  0.15D-02     8.52
    2     2     2     1.10490464    -0.23097326  -686.56381769    -0.23097326    -0.00553290  0.13D-02  0.12D-02     8.52
    3     1     1     1.11394998    -0.24345591  -686.68684086    -0.00766108    -0.00056213  0.17D-03  0.11D-03    16.54
    3     2     2     1.11179463    -0.23711160  -686.56995603    -0.00613834    -0.00038201  0.11D-03  0.75D-04    16.54
    4     1     1     1.11646852    -0.24402420  -686.68740915    -0.00056829    -0.00005541  0.17D-04  0.98D-05    24.55
    4     2     2     1.11467350    -0.23753763  -686.57038206    -0.00042603    -0.00004150  0.17D-04  0.60D-05    24.55
    5     1     1     1.11713422    -0.24408025  -686.68746520    -0.00005605    -0.00000660  0.18D-05  0.11D-05    32.59
    5     2     2     1.11536661    -0.23758597  -686.57043040    -0.00004835    -0.00000705  0.31D-05  0.79D-06    32.59
    6     1     1     1.11722132    -0.24408690  -686.68747185    -0.00000665    -0.00000094  0.31D-06  0.14D-06    40.73
    6     2     2     1.11550725    -0.23759379  -686.57043822    -0.00000781    -0.00000149  0.65D-06  0.15D-06    40.73
    7     1     1     1.11724925    -0.24408776  -686.68747270    -0.00000086    -0.00000014  0.47D-07  0.24D-07    48.82
    7     2     2     1.11558070    -0.23759540  -686.57043983    -0.00000162    -0.00000036  0.18D-06  0.32D-07    48.82
    8     1     1     1.11726571    -0.24408790  -686.68747285    -0.00000014    -0.00000002  0.69D-08  0.37D-08    56.93
    8     2     2     1.11561732    -0.23759579  -686.57044022    -0.00000039    -0.00000009  0.44D-07  0.72D-08    56.93
    9     1     1     1.11727236    -0.24408792  -686.68747287    -0.00000002    -0.00000000  0.14D-08  0.57D-09    65.05
    9     2     2     1.11563045    -0.23759589  -686.57044032    -0.00000010    -0.00000003  0.12D-07  0.18D-08    65.05
   10     1     1     1.11727239    -0.24408792  -686.68747287    -0.00000000    -0.00000000  0.12D-08  0.54D-09    70.72
   10     2     2     1.11564356    -0.23759592  -686.57044035    -0.00000003    -0.00000000  0.13D-08  0.38D-09    70.72


 =====================================
 Analysis of CPU times by interactions
 =====================================

       I      S      P

 I   0.3%
 S   0.2%   3.2%
 P   0.6%  12.8%  41.1%

 Initialization:   0.6%
 Other:           41.4%

 Total CPU:       70.7 seconds
 =====================================



 gnormi=  0.89503688  gnorms=  0.04331005  gnormp=  0.06165306  gnorm=  1.00000000
 ecorri= -0.21846769  ecorrs= -0.01057138  ecorrp= -0.01504885  ecorr= -0.24408792

 gnormi=  0.89634363  gnorms=  0.04144206  gnormp=  0.06221431  gnorm=  1.00000000
 ecorri= -0.21296759  ecorrs= -0.00984673  ecorrp= -0.01478160  ecorr= -0.23759592

 Reference coefficients greater than 0.0500000
 =============================================
 22/02/20           0.8873336   0.0548362
 22/02/\/          -0.1672972   0.7247903
 2/202/20          -0.1621338  -0.5331397
 22/0/220          -0.0332742  -0.1367190
 2/202/\/          -0.0772016   0.1126255
 22/02//\           0.0997518  -0.1020874
 22/02/02          -0.0823932   0.0870408
 222//020           0.0044551  -0.0757473
 2/002/22           0.0522394   0.0667501
 22/0/2\/          -0.0535186   0.0665973
 220/2/20           0.0627392  -0.0498124
 2/202//\           0.0546050  -0.0134124

 Coefficients of fixed reference functions:
 ==========================================

 State      Coefficients
 1           0.941684    0.082053
 2          -0.088510    0.941487

 Coefficients of rotated reference functions:
 ============================================

 State      Coefficients
 1           0.945246   -0.003225
 2          -0.003225    0.945633


 RESULTS FOR STATE 1.2
 =====================

 Coefficient of reference function:   C(0) = 0.94168363 (fixed)   0.94606389 (relaxed)   0.94524616 (rotated)

 Energy contributions of configuration classes

 CLASS          SQ.NORM        ECORR1        ECORR2
 +++++++++++++++++++++++++++++++++++++++++++++++++++
 Internals    0.00173094   -0.00003388   -0.14324618
 Singles      0.04847289   -0.06862426   -0.07188650
 Pairs        0.06900250   -0.01556413   -0.02895525
 Total        1.11920632   -0.08422227   -0.24408792
 +++++++++++++++++++++++++++++++++++++++++++++++++++


 Reference energy                    -686.44248552
 Nuclear energy                        59.26784762
 Kinetic energy                       686.67393779
 One electron energy                -1068.55134867
 Two electron energy                  322.59602818
 Virial quotient                       -1.00001971
 Correlation energy                    -0.24498735
 !MRCI STATE 1.2 Energy              -686.687472868164

 Properties without orbital relaxation:

 !MRCI STATE 1.2 Dipole moment          0.00000000     0.00000000    -0.70287948
 Dipole moment /Debye                   0.00000000     0.00000000    -1.78654145

 Cluster corrected energies          -686.71667691 (Davidson, fixed reference)
 Cluster corrected energies          -686.71620312 (Davidson, relaxed reference)
 Cluster corrected energies          -686.71667691 (Davidson, rotated reference)

 Cluster corrected energies          -686.71069438 (Pople, fixed reference)
 Cluster corrected energies          -686.71029651 (Pople, relaxed reference)
 Cluster corrected energies          -686.71069438 (Pople, rotated reference)



 RESULTS FOR STATE 2.2
 =====================

 Coefficient of reference function:   C(0) = 0.94148677 (fixed)   0.94675426 (relaxed)   0.94563261 (rotated)

 Energy contributions of configuration classes

 CLASS          SQ.NORM        ECORR1        ECORR2
 +++++++++++++++++++++++++++++++++++++++++++++++++++
 Internals    0.00237369   -0.00003386   -0.00201660
 Singles      0.04634431   -0.06244347   -0.06568500
 Pairs        0.06957375   -0.17346128   -0.16989432
 Total        1.11829175   -0.23593861   -0.23759592
 +++++++++++++++++++++++++++++++++++++++++++++++++++


 Reference energy                    -686.33374385
 Nuclear energy                        59.26784762
 Kinetic energy                       686.80724937
 One electron energy                -1068.04782426
 Two electron energy                  322.20953629
 Virial quotient                       -0.99965520
 Correlation energy                    -0.23669649
 !MRCI STATE 2.2 Energy              -686.570440349192

 Properties without orbital relaxation:

 !MRCI STATE 2.2 Dipole moment          0.00000000     0.00000000    -0.02659604
 Dipole moment /Debye                   0.00000000     0.00000000    -0.06760038

 Cluster corrected energies          -686.59843959 (Davidson, fixed reference)
 Cluster corrected energies          -686.59781277 (Davidson, relaxed reference)
 Cluster corrected energies          -686.59843959 (Davidson, rotated reference)

 Cluster corrected energies          -686.59269413 (Pople, fixed reference)
 Cluster corrected energies          -686.59216836 (Pople, relaxed reference)
 Cluster corrected energies          -686.59269413 (Pople, rotated reference)


 !MRCI trans          <2.2|DMZ|1.2>     0.091507361324 au =     0.232588512916 Debye


 **********************************************************************************************************************************
 DATASETS  * FILE   NREC   LENGTH (MB)   RECORD NAMES
              1      21      559.00       500      700      610      701      900      950      970     1000      129      960   
                                          VAR     GEOM    BASINP    GEOM    SYMINP    ZMAT    AOBASIS   BASIS     P2S    ABASIS    
                                         1100     1400     1410     1200     1210     1080     1600     1650     1300     1700   
                                           S        T        V       H0       H01     AOSYM     SMH    MOLCAS    ERIS     OPER   
                                         1380   
                                         JKOP   

              2       8       18.53       500      610      700     1000      520     2100     2140      701   
                                          VAR    BASINP    GEOM     BASIS   MCVARS     RHF     MCSCF    GEOM   

 PROGRAMS   *        TOTAL        CI     MULTI       INT        CI     MULTI       INT   RESTART
 CPU TIMES  *       232.98     71.01      6.12     41.81     70.39      2.88     40.65      0.01
 REAL TIME  *       242.50 SEC
 DISK USED  *         1.79 GB
 **********************************************************************************************************************************
 SETTING E1(2)          =      -686.68747287  AU                              
 SETTING E2(2)          =      -686.57044035  AU                              

 DO I                   =         3.00000000   


 Using spherical harmonics

 Library entry SI     S aug-cc-pV5Z          selected for orbital group  1
 Library entry SI     P aug-cc-pV5Z          selected for orbital group  1
 Library entry SI     D aug-cc-pV5Z          selected for orbital group  1
 Library entry SI     F aug-cc-pV5Z          selected for orbital group  1
 Library entry SI     G aug-cc-pV5Z          selected for orbital group  1
 Library entry SI     H aug-cc-pV5Z          selected for orbital group  1
 Library entry S      S aug-cc-pV5Z          selected for orbital group  2
 Library entry S      P aug-cc-pV5Z          selected for orbital group  2
 Library entry S      D aug-cc-pV5Z          selected for orbital group  2
 Library entry S      F aug-cc-pV5Z          selected for orbital group  2
 Library entry S      G aug-cc-pV5Z          selected for orbital group  2
 Library entry S      H aug-cc-pV5Z          selected for orbital group  2


 PROGRAM * SEWARD (Integral evaluation for generally contracted gaussian basis sets)     Author: Roland Lindh, 1990

 Geometry written to block  1 of record 701

 Orientation using atomic masses  
 Molecule type: Linear
 Symmetry elements: X,Y
 Rotational constants:       8.5244918      8.5244918      0.0000000 GHz  (calculated with average atomic masses)

 Point group  C2v 



 ATOMIC COORDINATES

 NR  ATOM    CHARGE       X              Y              Z

   1  SI     14.00    0.000000000    0.000000000   -2.004528899
   2  S      16.00    0.000000000    0.000000000    1.756026089

 Bond lengths in Bohr (Angstrom)

 1-2  3.760554988
     ( 1.990000000)

 NUCLEAR CHARGE:                   30
 NUMBER OF PRIMITIVE AOS:         434
 NUMBER OF SYMMETRY AOS:          324
 NUMBER OF CONTRACTIONS:          262   (   96A1  +   64B1  +   64B2  +   38A2  )
 NUMBER OF INNER CORE ORBITALS:     2   (    2A1  +    0B1  +    0B2  +    0A2  )
 NUMBER OF OUTER CORE ORBITALS:     8   (    4A1  +    2B1  +    2B2  +    0A2  )
 NUMBER OF VALENCE ORBITALS:        8   (    4A1  +    2B1  +    2B2  +    0A2  )


 NUCLEAR REPULSION ENERGY   59.56567600

 EXTRA SYMMETRY OF AOS IN SYMMETRY 1:   1 1 1 1 1 1 1 1 1 1   1 1 1 1 1 1 2 1 2 1   2 1 2 1 2 1 2 1 2 1   2 1 2 1 3 2 1 3 2 1
                                        3 2 2 3 1 2 3 1 1 1   1 1 1 1 1 1 1 1 1 1   1 1 1 1 2 1 2 1 2 1   2 1 2 1 2 1 2 1 2 1
                                        2 1 3 2 1 3 2 1 3 2   2 3 1 2 3 1
[...]
 CPU TIMES  *     14104.76      5.37     37.32     78.47      5.32     37.41     79.66      5.42     38.01     80.14      5.38
 REAL TIME  *     14704.00 SEC
 DISK USED  *         1.83 GB
 **********************************************************************************************************************************


 PROGRAM * CI (Multireference internally contracted CI)     Authors: H.-J. Werner, P.J. Knowles, 1987


 Convergence thresholds:  THRVAR = 1.00D-08  THRDEN = 1.00D-06

 Number of optimized states: 2  Roots:    1   2
 Number of reference states: 2  Roots:    1   2

 Program parameters:       NSTATE=  2    NSTATI=  3    NSTATR=  2    NCEPA = -1    NOKOP =  0    ITRDM =  0    ITRANS=  0
                           IDIP  =200    MAXIT =250    MAXITI=250    MAXDAV=  6    MAXVI =  9    NOSING=  0    NOPAIR=  0
                           MXSHRF=  5    IKCPS =  0    IOPTGM=  2    IOPTOR=  0    REFOPT=  1    IAVDEN=  0    IDELCG=  1
                           IREST =  0    NATORB=  0    IPUNRF=  0    ISEP  =  0    OLDDEN=  0    NSTPRI=  1    GPSFLI= -1
                           CLUSTE=  0    CLOSED=  1    ILSTYP=  0    ITRLS =  0    ICCSD =  0    LOCAL =  0    IBASO =  0
                           MP    =  0    ITEDIS=  2    INCDIS=  1    MAXDIS=  6    ITYDIS=  1    BRUECK=  0    IBRSTR=  3
                           INCBRK=  1    TRIPLE=  0    ICCTYP=  2    IHPPD =  0    ICCNEW=  0    I3EXT = -1    IDEB  =  0
                           IDLEIG=  1    IDFTYP=  1    IMP3  =  0    IPROCS=  0    NOINT =  0    NOREF =  1    IMP2G =  0
                           IHINT =  0    IFDIA =  0    ISPARO=  1    JKSYM =  0    CPHF  =  0    MP2D  = -1    DKINT =  0
                           NPKEX =  1    DRVK  =  1    HLSTRA=  1    WIGNER=  1    DIIS_C=  1    MAXIT_= 50    MATEL =  0
                           SPDEG =  1    MEMCPH=  0    DISM  =  1    KDCPMA=  5    IKDCP_=  0    IREDTH=  0    USECS =  0
                           IPROCC=  0    I3SAVE=  1    IKDCP =  1    USECI =  0    OLDPAI=  0    IPROCI=  0    KEEPCL=  1
                           DISCON=  0    SHIFTE=  0    DIISIN=  0    MOLCAS=  0    MEM_PT=  0    RECORD=  0    RS2C  =  0
                           KEXT  = -1    CIPT2 =  0    DECP0S=  0    I4EXT = -1    NATCOR=  0    RIMP2 =  0    DDCI  = -1
                           IPOLAR=  0

 Reference symmetry:                   2   Triplet 
 Number of electrons:                 30
 Maximum number of shells:             5
 Maximum number of spin couplings:    90

 Reference space:      192 conf      384 CSFs
 N elec internal:      728 conf     1512 CSFs
 N-1 el internal:     1016 conf     3696 CSFs
 N-2 el internal:     1016 conf     6857 CSFs

 Number of electrons in valence space:                     10
 Maximum number of open shell orbitals in reference space:  6
 Maximum number of open shell orbitals in internal spaces: 10


 Number of core orbitals:          10 (   6   2   2   0 )
 Number of active  orbitals:        8 (   4   2   2   0 )
 Number of external orbitals:     244 (  86  60  60  38 )

 Molecular orbitals read from record     2140.2  Type=MCSCF/NATURAL (state averaged)

 Valence orbitals related to previous ones by unitary transformation. Operators transformed.


 Number of p-space configurations:  10

 Reference wavefunction optimized for reference space (refopt=1)

 State     Reference Energy 
     1      -684.73749896
     2      -684.53955594
     3      -684.51968115

 Number of blocks in overlap matrix:     8   Smallest eigenvalue:  0.27D-03
 Number of N-2 electron functions:     128
 Number of N-1 electron functions:    3696

 Number of internal configurations:                  384
 Number of singly external configurations:        225456
 Number of doubly external configurations:        972960
 Total number of contracted configurations:      1198800
 Total number of uncontracted configurations:   51278176

 Diagonal Coupling coefficients finished.               Storage:  296869 words, CPU-Time:      0.05 seconds.
 Energy denominators for pairs finished in 1 passes.    Storage:  451087 words, CPU-time:      0.02 seconds.

  ITER. STATE  ROOT     SQ.NORM     CORR.ENERGY   TOTAL ENERGY   ENERGY CHANGE       DEN1      VAR(S)    VAR(P)      TIME
    1     1     1     1.00000000     0.00000000  -684.73749896     0.00000000    -0.27356510  0.54D-01  0.64D-01     0.51
    1     2     2     1.00000000     0.00000000  -684.53955594     0.00000000    -0.26634370  0.70D-01  0.63D-01     0.51
    2     1     1     1.10370757    -0.25627432  -684.99377329    -0.25627432    -0.00941819  0.26D-02  0.18D-02     7.72
    2     2     2     1.11943187    -0.25231340  -684.79186934    -0.25231340    -0.00982311  0.32D-02  0.19D-02     7.72
    3     1     1     1.10647099    -0.26599714  -685.00349610    -0.00972282    -0.00066312  0.12D-03  0.14D-03    14.96
    3     2     2     1.12448094    -0.26274506  -684.80230100    -0.01043166    -0.00096887  0.49D-03  0.17D-03    14.96
    4     1     1     1.10918460    -0.26676338  -685.00426235    -0.00076624    -0.00006314  0.14D-04  0.13D-04    22.22
    4     2     2     1.13495518    -0.26406554  -684.80362148    -0.00132048    -0.00022013  0.12D-03  0.34D-04    22.22
    5     1     1     1.10980199    -0.26684019  -685.00433915    -0.00007681    -0.00000745  0.16D-05  0.14D-05    29.53
    5     2     2     1.14197814    -0.26441333  -684.80396927    -0.00034779    -0.00008188  0.52D-04  0.11D-04    29.53
    6     1     1     1.10979771    -0.26684916  -685.00434813    -0.00000897    -0.00000094  0.17D-06  0.20D-06    36.79
    6     2     2     1.14455690    -0.26452587  -684.80408181    -0.00011254    -0.00003168  0.28D-04  0.34D-05    36.79
    7     1     1     1.10981886    -0.26685027  -685.00434924    -0.00000111    -0.00000016  0.44D-07  0.30D-07    44.08
    7     2     2     1.14696809    -0.26457052  -684.80412646    -0.00004465    -0.00001534  0.11D-04  0.19D-05    44.08
    8     1     1     1.10982995    -0.26685046  -685.00434942    -0.00000018    -0.00000003  0.58D-08  0.55D-08    51.27
    8     2     2     1.14865411    -0.26459149  -684.80414743    -0.00002097    -0.00000787  0.58D-05  0.78D-06    51.27
    9     1     1     1.10983187    -0.26685049  -685.00434946    -0.00000003    -0.00000001  0.11D-08  0.98D-09    58.43
    9     2     2     1.14955401    -0.26460130  -684.80415724    -0.00000981    -0.00000366  0.32D-05  0.33D-06    58.43
   10     1     1     1.10983163    -0.26685049  -685.00434946    -0.00000000    -0.00000000  0.79D-09  0.95D-09    63.47
   10     2     2     1.15176975    -0.26460950  -684.80416544    -0.00000820    -0.00000125  0.38D-06  0.14D-06    63.47
   11     1     1     1.10983169    -0.26685049  -685.00434946    -0.00000000    -0.00000000  0.80D-09  0.94D-09    68.45
   11     2     2     1.15196073    -0.26461063  -684.80416657    -0.00000113    -0.00000011  0.61D-07  0.17D-07    68.45
   12     1     1     1.10983166    -0.26685049  -685.00434946    -0.00000000    -0.00000000  0.83D-09  0.93D-09    73.42
   12     2     2     1.15214262    -0.26461080  -684.80416674    -0.00000017    -0.00000003  0.12D-07  0.33D-08    73.42
   13     1     1     1.10983165    -0.26685049  -685.00434946    -0.00000000    -0.00000000  0.82D-09  0.93D-09    78.41
   13     2     2     1.15218549    -0.26461083  -684.80416677    -0.00000003    -0.00000001  0.45D-08  0.66D-09    78.41


 =====================================
 Analysis of CPU times by interactions
 =====================================

       I      S      P

 I   0.2%
 S   0.1%   2.9%
 P   0.6%  13.1%  42.4%

 Initialization:   0.6%
 Other:           40.1%

 Total CPU:       78.4 seconds
 =====================================



 gnormi=  0.90103756  gnorms=  0.03389319  gnormp=  0.06506925  gnorm=  1.00000000
 ecorri= -0.24044232  ecorrs= -0.00904497  ecorrp= -0.01736321  ecorr= -0.26685049

 gnormi=  0.86791581  gnorms=  0.06999720  gnormp=  0.06208699  gnorm=  1.00000000
 ecorri= -0.22965992  ecorrs= -0.01852413  ecorrp= -0.01642677  ecorr= -0.26461083

 Reference coefficients greater than 0.0500000
 =============================================
 22/02/20           0.9281524  -0.1475770
 2/202/20           0.1154095   0.7454392
 220/2/20           0.1138937   0.4912593
 202/2/20           0.0284937  -0.0938967
 2///2\20           0.0050129   0.0843207
 22/02/\/          -0.0289607  -0.0815914
 2/\/2/20          -0.0403316  -0.0795367
 2/002/22           0.0333887  -0.0792267

 Coefficients of singly external configurations greater than 0.0500000
 =====================================================================

 22/02020   7.2     0.0120015   0.0843889
 22/02020   9.2    -0.0129177   0.0733411
 22/02020  13.2     0.0090974   0.0657111
 22/02020   5.2     0.0092184   0.0513077

 Coefficients of fixed reference functions:
 ==========================================

 State      Coefficients
 1           0.948654    0.008852
 2          -0.005443    0.925283

 Coefficients of rotated reference functions:
 ============================================

 State      Coefficients
 1           0.948693    0.001615
 2           0.001615    0.925298

 Energy contributions of internal configurations for state 2
 ===========================================================

   NUMBER        NORM          ECORR1        OCCUPATION

   274       0.00412426    -1.18958740       21202120                        


 RESULTS FOR STATE 1.2
 =====================

 Coefficient of reference function:   C(0) = 0.94865353 (fixed)   0.94922998 (relaxed)   0.94869345 (rotated)

 Energy contributions of configuration classes

 CLASS          SQ.NORM        ECORR1        ECORR2
 +++++++++++++++++++++++++++++++++++++++++++++++++++
 Internals    0.00113142    0.00000257   -0.17886224
 Singles      0.03765829   -0.05771175   -0.06098665
 Pairs        0.07229762   -0.01070909   -0.02700160
 Total        1.11108733   -0.06841827   -0.26685049
 +++++++++++++++++++++++++++++++++++++++++++++++++++


 Reference energy                    -684.73748745
 Nuclear energy                       107.75972295
 Kinetic energy                       692.53918033
 One electron energy                -1159.22825067
 Two electron energy                  366.46417826
 Virial quotient                       -0.98911999
 Correlation energy                    -0.26686201
 !MRCI STATE 1.2 Energy              -685.004349456867

 Properties without orbital relaxation:

 !MRCI STATE 1.2 Dipole moment          0.00000000     0.00000000     0.42236328
 Dipole moment /Debye                   0.00000000     0.00000000     1.07354038

 Cluster corrected energies          -685.03399445 (Davidson, fixed reference)
 Cluster corrected energies          -685.03365935 (Davidson, relaxed reference)
 Cluster corrected energies          -685.03399445 (Davidson, rotated reference)

 Cluster corrected energies          -685.02783002 (Pople, fixed reference)
 Cluster corrected energies          -685.02755060 (Pople, relaxed reference)
 Cluster corrected energies          -685.02783002 (Pople, rotated reference)



 RESULTS FOR STATE 2.2
 =====================

 Coefficient of reference function:   C(0) = 0.92528312 (fixed)   0.93161999 (relaxed)   0.92529772 (rotated)

 Energy contributions of configuration classes

 CLASS          SQ.NORM        ECORR1        ECORR2
 +++++++++++++++++++++++++++++++++++++++++++++++++++
 Internals    0.01371207    0.00000264   -0.00305351
 Singles      0.08175564   -0.06688707   -0.07579122
 Pairs        0.07251663   -0.19778567   -0.18576609
 Total        1.16798434   -0.26467010   -0.26461083
 +++++++++++++++++++++++++++++++++++++++++++++++++++


 Reference energy                    -684.53956746
 Nuclear energy                       107.75972295
 Kinetic energy                       692.16962286
 One electron energy                -1156.93035731
 Two electron energy                  364.36646760
 Virial quotient                       -0.98935889
 Correlation energy                    -0.26459931
 !MRCI STATE 2.2 Energy              -684.804166768281

 Properties without orbital relaxation:

 !MRCI STATE 2.2 Dipole moment          0.00000000     0.00000000     0.64701135
 Dipole moment /Debye                   0.00000000     0.00000000     1.64453881

 Cluster corrected energies          -684.84861531 (Davidson, fixed reference)
 Cluster corrected energies          -684.84443494 (Davidson, relaxed reference)
 Cluster corrected energies          -684.84861531 (Davidson, rotated reference)

 Cluster corrected energies          -684.84033327 (Pople, fixed reference)
 Cluster corrected energies          -684.83669063 (Pople, relaxed reference)
 Cluster corrected energies          -684.84033327 (Pople, rotated reference)


 !MRCI trans          <2.2|DMZ|1.2>    -0.547091367146 au =    -1.390567552958 Debye


 **********************************************************************************************************************************
 DATASETS  * FILE   NREC   LENGTH (MB)   RECORD NAMES
              1      21      604.43       500      700      610      701      900      950      970     1000      129      960   
                                          VAR     GEOM    BASINP    GEOM    SYMINP    ZMAT    AOBASIS   BASIS     P2S    ABASIS    
                                         1100     1400     1410     1200     1210     1080     1600     1650     1300     1700   
                                           S        T        V       H0       H01     AOSYM     SMH    MOLCAS    ERIS     OPER   
                                         1380   
                                         JKOP   

              2       8       18.53       500      610      700     1000      520     2100     2140      701   
                                          VAR    BASINP    GEOM     BASIS   MCVARS     RHF     MCSCF    GEOM   

 PROGRAMS   *        TOTAL        CI     MULTI       INT        CI     MULTI       INT        CI     MULTI       INT        CI
 CPU TIMES  *     14183.42     78.65      5.37     37.32     78.47      5.32     37.41     79.66      5.42     38.01     80.14
 REAL TIME  *     14785.84 SEC
 DISK USED  *         1.83 GB
 **********************************************************************************************************************************
 SETTING E1(123)        =      -685.00434946  AU                              
 SETTING E2(123)        =      -684.80416677  AU                              


      R          E1             E2
    2.026   -686.6874037   -686.5733998
    2.000   -686.6874729   -686.5704403
    1.990   -686.6873587   -686.5691344
    1.980   -686.6871584   -686.5677274
    1.970   -686.6868658   -686.5662132
    1.960   -686.6864738   -686.5645844
    1.957   -686.6863356   -686.5640722
    1.950   -686.6859741   -686.5628322
    1.940   -686.6853566   -686.5609457
    1.930   -686.6846115   -686.5589138
    1.920   -686.6837339   -686.5567308
    1.910   -686.6827337   -686.5544074
    1.900   -686.6816298   -686.5519661
    1.890   -686.6804307   -686.5494192
    1.880   -686.6791304   -686.5467643
    1.870   -686.6777170   -686.5439920
    1.860   -686.6761780   -686.5410914
    1.850   -686.6745010   -686.5380511
    1.840   -686.6726744   -686.5348576
    1.830   -686.6706864   -686.5314918
    1.820   -686.6685237   -686.5279189
    1.810   -686.6661713   -686.5240668
    1.800   -686.6636112   -686.5197967
    1.790   -686.6608310   -686.5149833
    1.780   -686.6578414   -686.5098445
    1.770   -686.6546595   -686.5047767
    1.760   -686.6512791   -686.4998208
    1.750   -686.6476816   -686.4948371
    1.740   -686.6438492   -686.4897135
    1.730   -686.6397666   -686.4843827
    1.720   -686.6354199   -686.4788036
    1.710   -686.6307959   -686.4729482
    1.700   -686.6258816   -686.4667946
    1.690   -686.6206640   -686.4603248
    1.680   -686.6151297   -686.4535221
    1.670   -686.6092650   -686.4463711
    1.660   -686.6030560   -686.4388569
    1.650   -686.5964882   -686.4309651
    1.640   -686.5895467   -686.4226818
    1.630   -686.5822161   -686.4139939
    1.620   -686.5744808   -686.4048894
    1.610   -686.5663244   -686.3953588
    1.600   -686.5577302   -686.3853961
    1.590   -686.5486809   -686.3750019
    1.580   -686.5391589   -686.3641889
    1.570   -686.5291462   -686.3529915
    1.560   -686.5186244   -686.3414823
    1.550   -686.5075751   -686.3297973
    1.540   -686.4959790   -686.3181472
    1.530   -686.4838157   -686.3067180
    1.520   -686.4710600   -686.2953475
    1.510   -686.4576819   -686.2833798
    1.500   -686.4436525   -686.2702611
    1.490   -686.4289474   -686.2559295
    1.480   -686.4135438   -686.2405370
    1.470   -686.3974184   -686.2242135
    1.460   -686.3805462   -686.2070273
    1.450   -686.3629010   -686.1890042
    1.440   -686.3444557   -686.1701452
    1.430   -686.3251818   -686.1504380
    1.420   -686.3050503   -686.1298621
    1.410   -686.2840312   -686.1083927
    1.400   -686.2620938   -686.0860014
    1.395   -686.2507709   -686.0744507
    1.390   -686.2392066   -686.0626580
    1.385   -686.2273968   -686.0506193
    1.380   -686.2153375   -686.0383304
    1.375   -686.2030245   -686.0257871
    1.370   -686.1904536   -686.0129851
    1.365   -686.1776207   -685.9999201
    1.360   -686.1645215   -685.9865877
    1.355   -686.1511517   -685.9729832
    1.350   -686.1375071   -685.9591024
    1.345   -686.1235832   -685.9449404
    1.340   -686.1093758   -685.9304927
    1.335   -686.0948805   -685.9157547
    1.330   -686.0800928   -685.9007214
    1.325   -686.0650082   -685.8853882
    1.320   -686.0496224   -685.8697501
    1.315   -686.0339309   -685.8538024
    1.310   -686.0179291   -685.8375400
    1.305   -686.0016126   -685.8209579
    1.300   -685.9849769   -685.8040511
    1.295   -685.9680175   -685.7868146
    1.290   -685.9507299   -685.7692431
    1.285   -685.9331096   -685.7513315
    1.280   -685.9151524   -685.7330746
    1.275   -685.8968539   -685.7144673
    1.270   -685.8782099   -685.6955050
    1.265   -685.8592162   -685.6761840
    1.260   -685.8398683   -685.6565051
    1.255   -685.8201581   -685.6364850
    1.250   -685.8000606   -685.6161643
    1.245   -685.7795698   -685.5954690
    1.240   -685.7587086   -685.5743473
    1.235   -685.7374739   -685.5528157
    1.230   -685.7158591   -685.5308800
    1.225   -685.6938582   -685.5085399
    1.220   -685.6714660   -685.4857926
    1.215   -685.6486773   -685.4626342
    1.210   -685.6254873   -685.4390603
    1.205   -685.6018915   -685.4150663
    1.200   -685.5778850   -685.3906474
    1.195   -685.5534635   -685.3657986
    1.190   -685.5286221   -685.3405149
    1.185   -685.5033565   -685.3147912
    1.180   -685.4776621   -685.2886221
    1.175   -685.4515343   -685.2620022
    1.170   -685.4249686   -685.2349261
    1.165   -685.3979603   -685.2073879
    1.160   -685.3705049   -685.1793814
    1.155   -685.3425975   -685.1509005
    1.150   -685.3142336   -685.1219381
    1.145   -685.2854081   -685.0924871
    1.140   -685.2561163   -685.0625397
    1.135   -685.2263529   -685.0320875
    1.130   -685.1961129   -685.0011218
    1.125   -685.1653908   -684.9696336
    1.120   -685.1341812   -684.9376148
    1.115   -685.1024783   -684.9050586
    1.110   -685.0702761   -684.8719620
    1.105   -685.0375686   -684.8383278
    1.100   -685.0043495   -684.8041668
                                                  

 CI/aug-cc-pV5Z energy=   -684.804166768281

              CI           MULTI              CI           MULTI              CI           MULTI              CI           MULTI
   -684.80416677   -684.51968115   -684.83832779   -684.55213852   -684.87196205   -684.58398411   -684.90505862   -684.61523713
 **********************************************************************************************************************************
 Molpro calculation terminated
