
 Working directory              : /tmp/molpro/molpro.2xys1svrQ3/
 Global scratch directory       : /tmp/molpro/molpro.2xys1svrQ3/
 Wavefunction directory         : /home/molpro/wfu/
 Main file repository           : /tmp/molpro/molpro.2xys1svrQ3/

 id        : gskim

 Nodes                nprocs
 localhost.localdomain    1
 GA implementation: MPI file
 GA implementation (serial work in mppx): MPI file

 Using customized tuning parameters: mindgm=1; mindgv=20; mindgc=4; mindgr=1; noblas=0; minvec=7
 default implementation of scratch files=df  


 Variables initialized (1009), CPU time= 0.00 sec
 ***,TDM  Calculations   for SiS  from 1Pix to 1Piy
 file,2,sis-sp-1pix-1piy-lz.wfu
 memory,1000,M
 gexpec,Lx,Ly,Lz
 geometry={angstrom;
 Si
 S,Si,r(i)}
 basis=av5z
 r=[1.50]
 do i=1,#r
 int;
 
 Text,TDM  calculation of SiS 1pix-1piy using  av5z
 
 {multi;occ,10,4,4;close,6,2,2;start,2140.2;orbital,2140.2;natorb,,ci;wf,30,2,0;state,3;wf,30,3,0;state,3;maxiter,40;}
 
 {ci;occ,10,4,4;core,6,2,2;wf,30,3,0;state,2;orbital,2140.2;maxiter,250;option,maxiti=250;option,nstati=3;save,8430.2;}
 
 {ci;occ,10,4,4;core,6,2,2;wf,30,2,0;state,2;orbital,2140.2;maxiter,250;option,maxiti=250;option,nstati=3;save,7430.2;}
 
 {ci;trans,7430.2,8430.2;}
 
 enddo
 
 Commands initialized (810), CPU time= 0.01 sec, 661 directives.
 Default parameters read. Elapsed time= 0.05 sec

 Checking input...
 Passed
1


                                         ***  PROGRAM SYSTEM MOLPRO  ***
                                       Copyright, TTI GmbH Stuttgart, 2015
                                    Version 2021.2 linked Jul 16 2021 07:37:36


 **********************************************************************************************************************************
 LABEL *   TDM  Calculations   for SiS  from 1Pix to 1Piy                                
  64 bit serial version                                                                  DATE: 21-Oct-24          TIME: 16:18:02  
 **********************************************************************************************************************************

 SHA1:             dade016a989826d9d859d6207854b99675d53db3
 **********************************************************************************************************************************

 Memory per process:      1000 MW
 Total memory per node:   1000 MW

 GA preallocation disabled
 GA check disabled

 Variable memory set to 1000.0 MW



 Permanent file  2  sis-sp-1pix-1piy-lz.wfu          assigned.  Implementation=df    Size= 17.56 MB


 PROGRAM * RESTART 


 Reading variables from file 2

 _FNUC           =      0.00000000
 _BASIS          =    AV5Z
 _NELEC          =     30.00000000
 _PROGRAM        =    CI
 _DMX(2)         =      0.00000000
 _DMY(2)         =      0.00000000
 _DMZ(1:2)       =      0.08060763    -0.33920113
 _DMX_SCF        =      0.00000000
 _DMY_SCF        =      0.00000000
 _DMZ_SCF        =      0.00913169
 _HOMO           =      9.10000000
 _EHOMO          =     -0.36177766
 _LUMO           =     10.10000000
 _ELUMO          =      0.03375101
 _ENERGD(1:2)    =   -686.42205390  -686.27527090
 _ENERGD0(1:2)   =   -686.42205390  -686.27527090
 _ENERGD1(1:2)   =   -686.42292792  -686.27587824
 _ENERGD2(1:2)   =   -686.42292792  -686.27587824
 _ENERGD3(1:2)   =   -686.42205390  -686.27527090
 _ENERGD4(1:2)   =   -686.42292792  -686.27587824
 _ENERGP(1:2)    =   -686.41726337  -686.27113356
 _ENERGP0(1:2)   =   -686.41726337  -686.27113356
 _ENERGP1(1:2)   =   -686.41807817  -686.27169190
 _ENERGP2(1:2)   =   -686.41807817  -686.27169190
 _ENERGP3(1:2)   =   -686.41726337  -686.27113356
 _ENERGP4(1:2)   =   -686.41807817  -686.27169190
 _ENERGR(1:2)    =   -686.11229897  -685.99627948
 _ENERGRR(1:2)   =   -686.11229841  -685.99628004
 _ENERGY(1:2)    =   -686.38679397  -686.24612224
 _ENERGY_METHOD  =    CI
 _ENERGY_BASIS   =    aug-cc-pV5Z
 _ENERGY_AVRG    =   -686.02161933
 _ENUC           =     79.02379683
 _IPROC_MPP      =      0.00000000
 _IPROC_MPPX     =      0.00000000
 _ORBITAL        =   2140.20000000
 _ROOT(1:2)      =      1.00000000     2.00000000
 _STATUS         =      1.00000000
 _TROV           =     -0.00000000
 _LASTORB        =    MCSCF
 _OUTPUT         =    /home/molpro/SiS-3oct2024/dir-1/sis150-1pi2mc.out
 _PGROUP         =    C2v 
 _TIME           =    16:05:03
 _C0(1:2)        =      0.88616851     0.89552111
 _C0R(1:2)       =      0.88367511     0.89357586
 _DMX_CC(1:6)    =     -0.00000000    -0.00000000    -0.00000000    -0.00000000    -0.00000000    -0.00000000
 _DMY_CC(1:6)    =     -0.00000000    -0.00000000    -0.00000000    -0.00000000    -0.00000000    -0.00000000
 _DMZ_CC(1:6)    =      1.85743702     1.85743702     1.85743702     1.85743702     1.85743702     1.85743702
 _DMX_NUC(1:6)   =      0.00000000     0.00000000     0.00000000     0.00000000     0.00000000     0.00000000
 _DMY_NUC(1:6)   =      0.00000000     0.00000000     0.00000000     0.00000000     0.00000000     0.00000000
 _DMZ_NUC(1:6)   =      0.02488404     0.02488404     0.02488404     0.02488404     0.02488404     0.02488404
 _SYM_CATION     =      1.00000000
 R               =      1.50000000
 _TRDMX          =     -0.00000000
 _TRDMY          =     -0.00000000
 _TRDMZ          =     -0.24871446

 Geometry written to block  1 of record 700


 **********************************************************************************************************************************
 DATASETS  * FILE   NREC   LENGTH (MB)   RECORD NAMES
              2       7       17.56       500      610      700     1000      520     2100     2140   
                                          VAR    BASINP    GEOM     BASIS   MCVARS     RHF     MCSCF   

 PROGRAMS   *        TOTAL   RESTART
 CPU TIMES  *         0.11      0.01
 REAL TIME  *         0.12 SEC
 DISK USED  *        29.03 MB
 **********************************************************************************************************************************
 namx(1:10)LX        
 namx(1:10)LY        
 namx(1:10)LZ        
 SETTING BASIS          =    AV5Z
 SETTING R              =         1.50000000                                  

 DO I                   =         1.00000000   


 Using spherical harmonics

 Library entry SI     S aug-cc-pV5Z          selected for orbital group  1
 Library entry SI     P aug-cc-pV5Z          selected for orbital group  1
 Library entry SI     D aug-cc-pV5Z          selected for orbital group  1
 Library entry SI     F aug-cc-pV5Z          selected for orbital group  1
 Library entry SI     G aug-cc-pV5Z          selected for orbital group  1
 Library entry SI     H aug-cc-pV5Z          selected for orbital group  1
 Library entry S      S aug-cc-pV5Z          selected for orbital group  2
 Library entry S      P aug-cc-pV5Z          selected for orbital group  2
 Library entry S      D aug-cc-pV5Z          selected for orbital group  2
 Library entry S      F aug-cc-pV5Z          selected for orbital group  2
 Library entry S      G aug-cc-pV5Z          selected for orbital group  2
 Library entry S      H aug-cc-pV5Z          selected for orbital group  2


 PROGRAM * SEWARD (Integral evaluation for generally contracted gaussian basis sets)     Author: Roland Lindh, 1990

 Geometry written to block  1 of record 701

 Orientation using atomic masses  
 Molecule type: Linear
 Symmetry elements: X,Y
 Rotational constants:      15.0034845     15.0034845      0.0000000 GHz  (calculated with average atomic masses)

 Point group  C2v 



 ATOMIC COORDINATES

 NR  ATOM    CHARGE       X              Y              Z

   1  SI     14.00    0.000000000    0.000000000   -1.510951432
   2  S      16.00    0.000000000    0.000000000    1.323637755

 Bond lengths in Bohr (Angstrom)

 1-2  2.834589187
     ( 1.500000000)

 NUCLEAR CHARGE:                   30
 NUMBER OF PRIMITIVE AOS:         434
 NUMBER OF SYMMETRY AOS:          324
 NUMBER OF CONTRACTIONS:          262   (   96A1  +   64B1  +   64B2  +   38A2  )
 NUMBER OF INNER CORE ORBITALS:     2   (    2A1  +    0B1  +    0B2  +    0A2  )
 NUMBER OF OUTER CORE ORBITALS:     8   (    4A1  +    2B1  +    2B2  +    0A2  )
 NUMBER OF VALENCE ORBITALS:        8   (    4A1  +    2B1  +    2B2  +    0A2  )


 NUCLEAR REPULSION ENERGY   79.02379683

 EXTRA SYMMETRY OF AOS IN SYMMETRY 1:   1 1 1 1 1 1 1 1 1 1   1 1 1 1 1 1 2 1 2 1   2 1 2 1 2 1 2 1 2 1   2 1 2 1 3 2 1 3 2 1
                                        3 2 2 3 1 2 3 1 1 1   1 1 1 1 1 1 1 1 1 1   1 1 1 1 2 1 2 1 2 1   2 1 2 1 2 1 2 1 2 1
                                        2 1 3 2 1 3 2 1 3 2   2 3 1 2 3 1
 EXTRA SYMMETRY OF AOS IN SYMMETRY 2:   1 1 1 1 1 1 1 1 1 1   1 1 1 2 1 2 1 2 1 2   1 2 1 2 1 2 1 2 3 1   2 3 1 1 1 1 1 1 1 1
                                        1 1 1 1 1 2 1 2 1 2   1 2 1 2 1 2 1 2 1 2   3 1 2 3
 EXTRA SYMMETRY OF AOS IN SYMMETRY 3:   1 1 1 1 1 1 1 1 1 1   1 1 1 2 1 2 1 2 1 2   1 2 1 2 1 2 1 2 3 1   2 3 1 1 1 1 1 1 1 1
                                        1 1 1 1 1 2 1 2 1 2   1 2 1 2 1 2 1 2 1 2   3 1 2 3
 EXTRA SYMMETRY OF AOS IN SYMMETRY 4:   1 1 1 1 1 1 1 1 1 1   2 1 2 1 2 2 1 2 1 1   1 1 1 1 1 1 1 1 1 2   1 2 1 2 2 1 2 1

 Eigenvalues of metric

         1 0.510E-05 0.628E-05 0.116E-04 0.167E-04 0.207E-04 0.868E-04 0.108E-03 0.297E-03
         2 0.790E-05 0.860E-05 0.116E-03 0.806E-03 0.998E-03 0.166E-02 0.501E-02 0.123E-01
         3 0.790E-05 0.860E-05 0.116E-03 0.806E-03 0.998E-03 0.166E-02 0.501E-02 0.123E-01
         4 0.598E-03 0.382E-02 0.140E-01 0.203E-01 0.459E-01 0.535E-01 0.617E-01 0.838E-01


 Contracted 2-electron integrals neglected if value below      1.0D-12
 AO integral compression algorithm  1   Integral accuracy      1.0D-12

     667.156 MB (compressed) written to integral file ( 46.0%)


 NUMBER OF SORTED TWO-ELECTRON INTEGRALS:  150955559.     BUFFER LENGTH:  32768
 NUMBER OF SEGMENTS:  10  SEGMENT LENGTH:   15998976      RECORD LENGTH: 524288

 Memory used in sort:      16.56 MW

 SORT1 READ   181316810. AND WROTE   100603426. INTEGRALS IN    293 RECORDS. CPU TIME:     2.06 SEC, REAL TIME:     2.60 SEC
 SORT2 READ   100603426. AND WROTE   150955559. INTEGRALS IN   2545 RECORDS. CPU TIME:     1.56 SEC, REAL TIME:     1.86 SEC

 FILE SIZES:   FILE 1:   698.8 MBYTE,  FILE 4:  1229.0 MBYTE,   TOTAL:   1927.8 MBYTE

 OPERATOR DM      FOR CENTER  0  COORDINATES:    0.000000    0.000000    0.000000
 OPERATOR LOP     FOR CENTER  0  COORDINATES:    0.000000    0.000000    0.000000
 OPERATOR LOP     FOR CENTER  0  COORDINATES:    0.000000    0.000000    0.000000
 OPERATOR LOP     FOR CENTER  0  COORDINATES:    0.000000    0.000000    0.000000


 **********************************************************************************************************************************
 DATASETS  * FILE   NREC   LENGTH (MB)   RECORD NAMES
              1      20      549.93       500      700      610      701      900      950      970     1000      129      960   
                                          VAR     GEOM    BASINP    GEOM    SYMINP    ZMAT    AOBASIS   BASIS     P2S    ABASIS    
                                         1100     1400     1410     1200     1210     1080     1600     1650     1300     1700   
                                           S        T        V       H0       H01     AOSYM     SMH    MOLCAS    ERIS     OPER   

              2       8       18.31       500      610      700     1000      520     2100     2140      701   
                                          VAR    BASINP    GEOM     BASIS   MCVARS     RHF     MCSCF    GEOM   

 PROGRAMS   *        TOTAL       INT   RESTART
 CPU TIMES  *        37.82     37.71      0.01
 REAL TIME  *        39.24 SEC
 DISK USED  *         1.81 GB
 **********************************************************************************************************************************

 PROGRAM * MULTI (Direct Multiconfiguration SCF)       Authors: P.J. Knowles, H.-J. Werner (1984)
                                                                D.A. Kreplin, P.J. Knowles, H.-J. Werner (2019)

 Number of closed-shell orbitals:  10 (   6   2   2   0 )
 Number of active  orbitals:        8 (   4   2   2   0 )
 Number of external orbitals:     244 (  86  60  60  38 )

 State symmetry 1

 Number of active electrons:  10    Spin symmetry=Singlet   Space symmetry=2
 Number of states:             3
 Number of CSFs:             288   (784 determinants, 3136 intermediate states)

 State symmetry 2

 Number of active electrons:  10    Spin symmetry=Singlet   Space symmetry=3
 Number of states:             3
 Number of CSFs:             288   (784 determinants, 3136 intermediate states)

 Molecular orbitals read from record     2140.2  Type=MCSCF/NATURAL (state averaged)

 EXTRA SYMMETRY OF MOS IN SYMMETRY 1:   1 1 1 1 1 1 1 1 1 1   1 1 1 2 1 1 1 2 2 1   1 1 2 1 1 2 1 2 3 1   1 2 1 2 1 2 1 3 1 2
                                        1 2 1 1 2 1 2 1 3 2   3 1 2 1 1 1 3 2 2 1   3 1 2 2 1 1 1 2 1 2   3 3 1 2 1 1 2 1 2 1
                                        3 1 3 2 1 2 2 1 1 1   2 1 1 1 1 1
 EXTRA SYMMETRY OF MOS IN SYMMETRY 2:   1 1 1 1 1 1 1 1 2 1   1 1 1 2 1 1 2 1 2 1   1 1 2 1 2 1 1 2 1 3   1 2 1 2 1 2 3 1 1 2
                                        1 2 2 1 1 1 3 2 1 2   1 1 2 1 1 3 2 1 2 1   1 1 1 1
 EXTRA SYMMETRY OF MOS IN SYMMETRY 3:   1 1 1 1 1 1 1 1 2 1   1 1 1 2 1 1 2 1 2 1   1 1 2 1 2 1 1 2 1 3   1 2 1 2 1 2 3 1 1 2
                                        1 2 2 1 1 1 3 2 1 2   1 1 2 1 1 3 2 1 2 1   1 1 1 1
 EXTRA SYMMETRY OF MOS IN SYMMETRY 4:   1 1 1 1 1 1 2 1 1 1   2 1 1 1 1 2 1 2 1 2   1 1 2 1 1 1 1 2 2 1   1 1 2 2 1 1 1 1

 Wavefunction dump at record             2140.2

 Convergence thresholds  0.10E-04 (gradient)  0.10E-05 (energy)

 Weight factors for state symmetry  1:    0.16667   0.16667   0.16667
 Weight factors for state symmetry  2:    0.16667   0.16667   0.16667
 
 Number of orbital rotations:  1372  ( 32 closed/active, 756 closed/virtual, 0 active/active, 584 active/virtual )
 Total number of variables:    6076
 
  Second-order MCSCF: L-BFGS accelerated
 
 ITER  MIC  NCI  NEG     ENERGY(VAR)    ENERGY(PROJ) ENERGY CHANGE       GRAD(0)  GRAD(ORB)   GRAD(CI)      STEP      TIME
   1    8   32    0   -686.02161933    -686.02161933   -0.00000000    0.00002034 0.00000000 0.00000005  0.16E-07      1.48

 CONVERGENCE REACHED!  Final gradient:    0.00000001 ( 0.78E-08)
                       Final energy:   -686.02161933
 
 Results for state 1.2
 =====================
 !MCSCF STATE 1.2 Energy                      -686.112298974252
 Nuclear energy                                 79.02379683
 Kinetic energy                                688.60102180
 One electron energy                         -1107.70128685
 Two electron energy                           342.56519105
 Virial ratio                                    1.99638583
 
 !MCSCF STATE 1.2 Dipole moment                  0.00000000     0.00000000     0.24316650
 Dipole moment /Debye                            0.00000000     0.00000000     0.61806759
 
 Results for state 2.2
 =====================
 !MCSCF STATE 2.2 Energy                      -685.996279475203
 Nuclear energy                                 79.02379683
 Kinetic energy                                688.18821875
 One electron energy                         -1103.32188615
 Two electron energy                           338.30180984
 Virial ratio                                    1.99681491
 
 !MCSCF STATE 2.2 Dipole moment                  0.00000000     0.00000000    -0.39156106
 Dipole moment /Debye                            0.00000000     0.00000000    -0.99524895
 
 Results for state 3.2
 =====================
 !MCSCF STATE 3.2 Energy                      -685.956279527476
 Nuclear energy                                 79.02379683
 Kinetic energy                                688.46335665
 One electron energy                         -1106.31470147
 Two electron energy                           341.33462512
 Virial ratio                                    1.99635845
 
 !MCSCF STATE 3.2 Dipole moment                  0.00000000     0.00000000     0.96000963
 Dipole moment /Debye                            0.00000000     0.00000000     2.44010110
 
 Results for state 1.3
 =====================
 !MCSCF STATE 1.3 Energy                      -686.112298974252
 Nuclear energy                                 79.02379683
 Kinetic energy                                688.60102180
 One electron energy                         -1107.70128685
 Two electron energy                           342.56519105
 Virial ratio                                    1.99638583
 
 !MCSCF STATE 1.3 Dipole moment                  0.00000000     0.00000000     0.24316650
 Dipole moment /Debye                            0.00000000     0.00000000     0.61806759
 
 Results for state 2.3
 =====================
 !MCSCF STATE 2.3 Energy                      -685.996279475203
 Nuclear energy                                 79.02379683
 Kinetic energy                                688.18821875
 One electron energy                         -1103.32188615
 Two electron energy                           338.30180984
 Virial ratio                                    1.99681491
 
 !MCSCF STATE 2.3 Dipole moment                  0.00000000     0.00000000    -0.39156106
 Dipole moment /Debye                            0.00000000     0.00000000    -0.99524895
 
 Results for state 3.3
 =====================
 !MCSCF STATE 3.3 Energy                      -685.956279527476
 Nuclear energy                                 79.02379683
 Kinetic energy                                688.46335665
 One electron energy                         -1106.31470147
 Two electron energy                           341.33462512
 Virial ratio                                    1.99635845
 
 !MCSCF STATE 3.3 Dipole moment                  0.00000000     0.00000000     0.96000963
 Dipole moment /Debye                            0.00000000     0.00000000     2.44010110
 
 State-averaged charge density matrix saved on record 2140.2 (density set 1)
 
 Expectation values: (only non-zero values are shown)
 
 !MCSCF expec                       <1.2|DMZ|1.2>     0.243166498099 au =     0.618067588942 Debye
 !MCSCF expec                       <2.2|DMZ|2.2>    -0.391561060700 au =    -0.995248945075 Debye
 !MCSCF expec                       <3.2|DMZ|3.2>     0.960009634689 au =     2.440101103203 Debye
 !MCSCF expec                       <1.3|DMZ|1.3>     0.243166498099 au =     0.618067588941 Debye
 !MCSCF expec                       <2.3|DMZ|2.3>    -0.391561060701 au =    -0.995248945076 Debye
 !MCSCF expec                       <3.3|DMZ|3.3>     0.960009634690 au =     2.440101103204 Debye
 
 Transition values: (only non-zero values with the ground state are shown)
 
 !MCSCF trans                       <1.2|DMZ|2.2>     0.241647282183 au =     0.614206127247 Debye
 !MCSCF trans                       <1.2|DMZ|3.2>    -0.631779931995 au =    -1.605824413982 Debye
 
 !MCSCF trans                        <1.2|LZ|1.3>    -1.000000000000i
 
 
 Natural orbital dump (state averaged) at molpro section 2140.2 (Orbital set 2)
 
 Reoptimze the CI vectors with natural orbitals 
 
 CI Coefficients of symmetry 2
 =============================
 
 22b0 2a 20     -0.68295361     -0.02731572     -0.03351256
 22a0 2b 20      0.68295361      0.02731572      0.03351256
 222b a0 20     -0.03741266      0.66156152      0.19433406
 222a b0 20      0.03741266     -0.66156152     -0.19433406
 2b20 2a 20      0.07803476      0.17165876     -0.54234188
 2a20 2b 20     -0.07803476     -0.17165876      0.54234188
 22b0 a2 20      0.05042619     -0.08098101      0.30211831
 22a0 b2 20     -0.05042619      0.08098101     -0.30211831
 22a0 2a bb      0.01918807     -0.03024912      0.17098267
 22b0 2b aa      0.01918807     -0.03024912      0.17098267
 22a0 2b ba     -0.03954072      0.03106985     -0.16879094
 22b0 2a ab     -0.03954072      0.03106985     -0.16879094
 2b20 a2 20      0.07698624     -0.00656620      0.02011957
 2a20 b2 20     -0.07698624      0.00656620     -0.02011957
 2b20 2a ab     -0.05824313     -0.00760124     -0.00207443
 2a20 2b ba     -0.05824313     -0.00760124     -0.00207443
 220a 2b 20      0.02834175     -0.05824305      0.04817548
 220b 2a 20     -0.02834175      0.05824305     -0.04817548
 220b a2 20     -0.00550600     -0.05741116     -0.01037976
 220a b2 20      0.00550600      0.05741116      0.01037976
 
 Energy:      -686.11229897   -685.99627948   -685.95627953
 
 
 CI Coefficients of symmetry 3
 =============================
 
 22b0 20 2a     -0.68295361     -0.02731572     -0.03351256
 22a0 20 2b      0.68295361      0.02731572      0.03351256
 222b 20 a0     -0.03741266      0.66156152      0.19433406
 222a 20 b0      0.03741266     -0.66156152     -0.19433406
 2b20 20 2a      0.07803476      0.17165876     -0.54234188
 2a20 20 2b     -0.07803476     -0.17165876      0.54234188
 22b0 20 a2      0.05042619     -0.08098101      0.30211831
 22a0 20 b2     -0.05042619      0.08098101     -0.30211831
 22b0 aa 2b      0.01918807     -0.03024912      0.17098267
 22a0 bb 2a      0.01918807     -0.03024912      0.17098267
 22a0 ba 2b     -0.03954072      0.03106985     -0.16879094
 22b0 ab 2a     -0.03954072      0.03106985     -0.16879094
 2b20 20 a2      0.07698624     -0.00656620      0.02011957
 2a20 20 b2     -0.07698624      0.00656620     -0.02011957
 2b20 ab 2a     -0.05824313     -0.00760124     -0.00207443
 2a20 ba 2b     -0.05824313     -0.00760124     -0.00207443
 220b 20 2a     -0.02834175      0.05824305     -0.04817548
 220a 20 2b      0.02834175     -0.05824305      0.04817548
 220b 20 a2     -0.00550600     -0.05741116     -0.01037976
 220a 20 b2      0.00550600      0.05741116      0.01037976
 
 Energy:      -686.11229897   -685.99627948   -685.95627953
 


 **********************************************************************************************************************************
 DATASETS  * FILE   NREC   LENGTH (MB)   RECORD NAMES
              1      21      585.24       500      700      610      701      900      950      970     1000      129      960   
                                          VAR     GEOM    BASINP    GEOM    SYMINP    ZMAT    AOBASIS   BASIS     P2S    ABASIS    
                                         1100     1400     1410     1200     1210     1080     1600     1650     1300     1700   
                                           S        T        V       H0       H01     AOSYM     SMH    MOLCAS    ERIS     OPER   
                                         1380   
                                         JKOP   

              2       8       18.31       500      610      700     1000      520     2100     2140      701   
                                          VAR    BASINP    GEOM     BASIS   MCVARS     RHF     MCSCF    GEOM   

 PROGRAMS   *        TOTAL     MULTI       INT   RESTART
 CPU TIMES  *        40.34      2.51     37.71      0.01
 REAL TIME  *        42.07 SEC
 DISK USED  *         1.81 GB
 **********************************************************************************************************************************


 PROGRAM * CI (Multireference internally contracted CI)     Authors: H.-J. Werner, P.J. Knowles, 1987


 Convergence thresholds:  THRVAR = 1.00D-08  THRDEN = 1.00D-06

 Number of optimized states: 2  Roots:    1   2
 Number of reference states: 2  Roots:    1   2

 Program parameters:       NSTATE=  2    NSTATI=  3    NSTATR=  2    NCEPA = -1    NOKOP =  0    ITRDM =  0    ITRANS=  0
                           IDIP  =200    MAXIT =250    MAXITI=250    MAXDAV=  6    MAXVI =  9    NOSING=  0    NOPAIR=  0
                           MXSHRF=  6    IKCPS =  0    IOPTGM=  2    IOPTOR=  0    REFOPT=  1    IAVDEN=  0    IDELCG=  1
                           IREST =  0    NATORB=  0    IPUNRF=  0    ISEP  =  0    OLDDEN=  0    NSTPRI=  1    GPSFLI= -1
                           CLUSTE=  0    CLOSED=  1    ILSTYP=  0    ITRLS =  0    ICCSD =  0    LOCAL =  0    IBASO =  0
                           MP    =  0    ITEDIS=  2    INCDIS=  1    MAXDIS=  6    ITYDIS=  1    BRUECK=  0    IBRSTR=  3
                           INCBRK=  1    TRIPLE=  0    ICCTYP=  1    IHPPD =  0    ICCNEW=  0    I3EXT = -1    IDEB  =  0
                           IDLEIG=  1    IDFTYP=  1    IMP3  =  0    IPROCS=  0    NOINT =  0    NOREF =  1    IMP2G =  0
                           IHINT =  0    IFDIA =  0    ISPARO=  1    JKSYM =  0    CPHF  =  0    MP2D  = -1    DKINT =  0
                           NPKEX =  1    DRVK  =  1    HLSTRA=  1    WIGNER=  1    DIIS_C=  1    MAXIT_= 50    MATEL =  0
                           SPDEG =  1    MEMCPH=  0    DISM  =  1    KDCPMA=  5    IKDCP_=  0    IREDTH=  0    USECS =  0
                           IPROCC=  0    I3SAVE=  1    IKDCP =  1    USECI =  0    OLDPAI=  0    IPROCI=  0    KEEPCL=  1
                           DISCON=  0    SHIFTE=  0    DIISIN=  0    MOLCAS=  0    MEM_PT=  0    RECORD=  0    RS2C  =  0
                           KEXT  = -1    CIPT2 =  0    DECP0S=  0    I4EXT = -1    NATCOR=  0    RIMP2 =  0    DDCI  = -1
                           IPOLAR=  0

 Reference symmetry:                   3   Singlet 
 Number of electrons:                 30
 Maximum number of shells:             6
 Maximum number of spin couplings:    42

 Reference space:      192 conf      288 CSFs
 N elec internal:      784 conf     1176 CSFs
 N-1 el internal:     1016 conf     2352 CSFs
 N-2 el internal:     1016 conf     3905 CSFs

 Number of electrons in valence space:                     10
 Maximum number of open shell orbitals in reference space:  6
 Maximum number of open shell orbitals in internal spaces: 10


 Number of core orbitals:          10 (   6   2   2   0 )
 Number of active  orbitals:        8 (   4   2   2   0 )
 Number of external orbitals:     244 (  86  60  60  38 )

 Molecular orbitals read from record     2140.2  Type=MCSCF/NATURAL (state averaged)

 Valence orbitals related to previous ones by unitary transformation. Operators transformed.


 Number of p-space configurations:  11

 Reference wavefunction optimized for reference space (refopt=1)

 State     Reference Energy 
     1      -686.11229897
     2      -685.99627948
     3      -685.95627953

 Number of blocks in overlap matrix:     8   Smallest eigenvalue:  0.25D-02
 Number of N-2 electron functions:     128
 Number of N-1 electron functions:    2352

 Number of internal configurations:                  288
 Number of singly external configurations:        143472
 Number of doubly external configurations:        972960
 Total number of contracted configurations:      1116720
 Total number of uncontracted configurations:   29245120

 Diagonal Coupling coefficients finished.               Storage:  189082 words, CPU-Time:      0.04 seconds.
 Energy denominators for pairs finished in 1 passes.    Storage:  361900 words, CPU-time:      0.01 seconds.

  ITER. STATE  ROOT     SQ.NORM     CORR.ENERGY   TOTAL ENERGY   ENERGY CHANGE       DEN1      VAR(S)    VAR(P)      TIME
    1     1     1     1.00000000     0.00000000  -686.11229897     0.00000000    -0.29634567  0.79D-01  0.73D-01     0.48
    1     2     2     1.00000000     0.00000000  -685.99627948    -0.00000000    -0.25243040  0.55D-01  0.61D-01     0.48
    2     1     1     1.11977261    -0.26322856  -686.37552753    -0.26322856    -0.01046800  0.32D-02  0.21D-02     7.07
    2     2     2     1.10596563    -0.24187303  -686.23815250    -0.24187303    -0.00660776  0.16D-02  0.14D-02     7.07
    3     1     1     1.12357312    -0.27360919  -686.38590816    -0.01038063    -0.00071183  0.17D-03  0.16D-03    13.76
    3     2     2     1.11221835    -0.24921596  -686.24549543    -0.00734293    -0.00047248  0.12D-03  0.10D-03    13.76
    4     1     1     1.12712926    -0.27440120  -686.38670017    -0.00079201    -0.00006979  0.22D-04  0.14D-04    20.38
    4     2     2     1.11580366    -0.24976735  -686.24604683    -0.00055139    -0.00004960  0.16D-04  0.96D-05    20.38
    5     1     1     1.12827614    -0.27448129  -686.38678027    -0.00008010    -0.00000982  0.31D-05  0.18D-05    27.10
    5     2     2     1.11653183    -0.24982954  -686.24610902    -0.00006219    -0.00000837  0.33D-05  0.14D-05    27.10
    6     1     1     1.12838485    -0.27449274  -686.38679171    -0.00001145    -0.00000160  0.60D-06  0.28D-06    33.73
    6     2     2     1.11656271    -0.24983992  -686.24611940    -0.00001038    -0.00000176  0.58D-06  0.30D-06    33.73
    7     1     1     1.12842117    -0.27449457  -686.38679354    -0.00000183    -0.00000032  0.14D-06  0.50D-07    40.46
    7     2     2     1.11662929    -0.24984210  -686.24612158    -0.00000218    -0.00000043  0.18D-06  0.61D-07    40.46
    8     1     1     1.12844662    -0.27449493  -686.38679390    -0.00000036    -0.00000007  0.28D-07  0.10D-07    47.22
    8     2     2     1.11665682    -0.24984260  -686.24612208    -0.00000050    -0.00000011  0.44D-07  0.14D-07    47.22
    9     1     1     1.12845203    -0.27449500  -686.38679397    -0.00000007    -0.00000001  0.68D-08  0.20D-08    53.93
    9     2     2     1.11665864    -0.24984272  -686.24612220    -0.00000012    -0.00000003  0.12D-07  0.42D-08    53.93
   10     1     1     1.12845365    -0.27449500  -686.38679397    -0.00000000    -0.00000001  0.65D-08  0.20D-08    58.59
   10     2     2     1.11666826    -0.24984277  -686.24612224    -0.00000004    -0.00000000  0.12D-08  0.54D-09    58.59


 =====================================
 Analysis of CPU times by interactions
 =====================================

       I      S      P

 I   0.2%
 S   0.2%   2.4%
 P   0.5%   8.4%  45.5%

 Initialization:   0.7%
 Other:           42.3%

 Total CPU:       58.6 seconds
 =====================================



 gnormi=  0.88616843  gnorms=  0.04930423  gnormp=  0.06452734  gnorm=  1.00000000
 ecorri= -0.24324880  ecorrs= -0.01353413  ecorrp= -0.01771207  ecorr= -0.27449500

 gnormi=  0.89552111  gnorms=  0.04620394  gnormp=  0.05827495  gnorm=  1.00000000
 ecorri= -0.22373947  ecorrs= -0.01154432  ecorrp= -0.01455898  ecorr= -0.24984277

 Wavefunction saved on  8430.2

 Reference coefficients greater than 0.0500000
 =============================================
 22/0202\           0.9187475  -0.0306809
 222/20\0           0.0386428   0.8763253
 2/20202\          -0.0667825   0.2673788
 22/020\2          -0.0548359  -0.1075097
 2/2020\2          -0.0907328  -0.0045840
 220/202\           0.0433811   0.0776981
 220/20\2           0.0073719  -0.0757109
 2/20\/2\          -0.0662082   0.0048854
 220/22\0          -0.0019306  -0.0644598
 22/0\/2\          -0.0466888  -0.0628380
 222/200\          -0.0056917  -0.0548604
 2/\/202\          -0.0410990  -0.0544146
 2/20/\2\           0.0514972  -0.0168265
 22/0022\          -0.0508381  -0.0031183

 Coefficients of fixed reference functions:
 ==========================================

 State      Coefficients
 1           0.940035   -0.003137
 2           0.001009    0.945291

 Coefficients of rotated reference functions:
 ============================================

 State      Coefficients
 1           0.940040   -0.001070
 2          -0.001070    0.945291


 RESULTS FOR STATE 1.3
 =====================

 Coefficient of reference function:   C(0) = 0.94003528 (fixed)   0.94136520 (relaxed)   0.94003990 (rotated)

 Energy contributions of configuration classes

 CLASS          SQ.NORM        ECORR1        ECORR2
 +++++++++++++++++++++++++++++++++++++++++++++++++++
 Internals    0.00282164    0.00000029   -0.17552208
 Singles      0.05579453   -0.07629285   -0.08095221
 Pairs        0.07302157   -0.00034927   -0.01802070
 Total        1.13163773   -0.07664182   -0.27449500
 +++++++++++++++++++++++++++++++++++++++++++++++++++


 Reference energy                    -686.11229841
 Nuclear energy                        79.02379683
 Kinetic energy                       688.59501453
 One electron energy                -1107.33279084
 Two electron energy                  341.92220004
 Virial quotient                       -0.99679315
 Correlation energy                    -0.27449556
 !MRCI STATE 1.3 Energy              -686.386793974265

 Properties without orbital relaxation:

 !MRCI STATE 1.3 Dipole moment          0.00000000     0.00000000     0.08060670
 Dipole moment /Debye                   0.00000000     0.00000000     0.20488179

 Cluster corrected energies          -686.42292795 (Davidson, fixed reference)
 Cluster corrected energies          -686.42205393 (Davidson, relaxed reference)
 Cluster corrected energies          -686.42292795 (Davidson, rotated reference)

 Cluster corrected energies          -686.41807819 (Pople, fixed reference)
 Cluster corrected energies          -686.41726339 (Pople, relaxed reference)
 Cluster corrected energies          -686.41807819 (Pople, rotated reference)







 RESULTS FOR STATE 2.3
 =====================

 Coefficient of reference function:   C(0) = 0.94529145 (fixed)   0.94631977 (relaxed)   0.94529139 (rotated)

 Energy contributions of configuration classes

 CLASS          SQ.NORM        ECORR1        ECORR2
 +++++++++++++++++++++++++++++++++++++++++++++++++++
 Internals    0.00217699    0.00000029   -0.00048850
 Singles      0.05170680   -0.07318581   -0.07694138
 Pairs        0.06521545   -0.17665418   -0.17241288
 Total        1.11909924   -0.24983970   -0.24984277
 +++++++++++++++++++++++++++++++++++++++++++++++++++


 Reference energy                    -685.99628004
 Nuclear energy                        79.02379683
 Kinetic energy                       688.60002582
 One electron energy                -1104.15193682
 Two electron energy                  338.88201775
 Virial quotient                       -0.99658161
 Correlation energy                    -0.24984221
 !MRCI STATE 2.3 Energy              -686.246122242352

 Properties without orbital relaxation:

 !MRCI STATE 2.3 Dipole moment          0.00000000     0.00000000    -0.33919934
 Dipole moment /Debye                   0.00000000     0.00000000    -0.86215872

 Cluster corrected energies          -686.27587826 (Davidson, fixed reference)
 Cluster corrected energies          -686.27527090 (Davidson, relaxed reference)
 Cluster corrected energies          -686.27587826 (Davidson, rotated reference)

 Cluster corrected energies          -686.27169192 (Pople, fixed reference)
 Cluster corrected energies          -686.27113356 (Pople, relaxed reference)
 Cluster corrected energies          -686.27169192 (Pople, rotated reference)






 !MRCI trans          <2.3|DMZ|1.3>    -0.248715518935 au =    -0.632171793082 Debye


 **********************************************************************************************************************************
 DATASETS  * FILE   NREC   LENGTH (MB)   RECORD NAMES
              1      21      585.24       500      700      610      701      900      950      970     1000      129      960   
                                          VAR     GEOM    BASINP    GEOM    SYMINP    ZMAT    AOBASIS   BASIS     P2S    ABASIS    
                                         1100     1400     1410     1200     1210     1080     1600     1650     1300     1700   
                                           S        T        V       H0       H01     AOSYM     SMH    MOLCAS    ERIS     OPER   
                                         1380   
                                         JKOP   

              2       9       35.95       500      610      700     1000      520     2100     2140      701     8430   
                                          VAR    BASINP    GEOM     BASIS   MCVARS     RHF     MCSCF    GEOM     MRCI   

 PROGRAMS   *        TOTAL        CI     MULTI       INT   RESTART
 CPU TIMES  *        99.14     58.80      2.51     37.71      0.01
 REAL TIME  *       103.32 SEC
 DISK USED  *         1.81 GB
 **********************************************************************************************************************************


 PROGRAM * CI (Multireference internally contracted CI)     Authors: H.-J. Werner, P.J. Knowles, 1987


 Convergence thresholds:  THRVAR = 1.00D-08  THRDEN = 1.00D-06

 Number of optimized states: 2  Roots:    1   2
 Number of reference states: 2  Roots:    1   2

 Program parameters:       NSTATE=  2    NSTATI=  3    NSTATR=  2    NCEPA = -1    NOKOP =  0    ITRDM =  0    ITRANS=  0
                           IDIP  =200    MAXIT =250    MAXITI=250    MAXDAV=  6    MAXVI =  9    NOSING=  0    NOPAIR=  0
                           MXSHRF=  6    IKCPS =  0    IOPTGM=  2    IOPTOR=  0    REFOPT=  1    IAVDEN=  0    IDELCG=  1
                           IREST =  0    NATORB=  0    IPUNRF=  0    ISEP  =  0    OLDDEN=  0    NSTPRI=  1    GPSFLI= -1
                           CLUSTE=  0    CLOSED=  1    ILSTYP=  0    ITRLS =  0    ICCSD =  0    LOCAL =  0    IBASO =  0
                           MP    =  0    ITEDIS=  2    INCDIS=  1    MAXDIS=  6    ITYDIS=  1    BRUECK=  0    IBRSTR=  3
                           INCBRK=  1    TRIPLE=  0    ICCTYP=  1    IHPPD =  0    ICCNEW=  0    I3EXT = -1    IDEB  =  0
                           IDLEIG=  1    IDFTYP=  1    IMP3  =  0    IPROCS=  0    NOINT =  0    NOREF =  1    IMP2G =  0
                           IHINT =  0    IFDIA =  0    ISPARO=  1    JKSYM =  0    CPHF  =  0    MP2D  = -1    DKINT =  0
                           NPKEX =  1    DRVK  =  1    HLSTRA=  1    WIGNER=  1    DIIS_C=  1    MAXIT_= 50    MATEL =  0
                           SPDEG =  1    MEMCPH=  0    DISM  =  1    KDCPMA=  5    IKDCP_=  0    IREDTH=  0    USECS =  0
                           IPROCC=  0    I3SAVE=  1    IKDCP =  1    USECI =  0    OLDPAI=  0    IPROCI=  0    KEEPCL=  1
                           DISCON=  0    SHIFTE=  0    DIISIN=  0    MOLCAS=  0    MEM_PT=  0    RECORD=  0    RS2C  =  0
                           KEXT  = -1    CIPT2 =  0    DECP0S=  0    I4EXT = -1    NATCOR=  0    RIMP2 =  0    DDCI  = -1
                           IPOLAR=  0

 Reference symmetry:                   2   Singlet 
 Number of electrons:                 30
 Maximum number of shells:             6
 Maximum number of spin couplings:    42

 Reference space:      192 conf      288 CSFs
 N elec internal:      784 conf     1176 CSFs
 N-1 el internal:     1016 conf     2352 CSFs
 N-2 el internal:     1016 conf     3905 CSFs

 Number of electrons in valence space:                     10
 Maximum number of open shell orbitals in reference space:  6
 Maximum number of open shell orbitals in internal spaces: 10


 Number of core orbitals:          10 (   6   2   2   0 )
 Number of active  orbitals:        8 (   4   2   2   0 )
 Number of external orbitals:     244 (  86  60  60  38 )

 Molecular orbitals read from record     2140.2  Type=MCSCF/NATURAL (state averaged)

 Coulomb and exchange operators available. No transformation done.


 Number of p-space configurations:  12

 Reference wavefunction optimized for reference space (refopt=1)

 State     Reference Energy 
     1      -686.11229897
     2      -685.99627948
     3      -685.95627953

 Number of blocks in overlap matrix:     8   Smallest eigenvalue:  0.25D-02
 Number of N-2 electron functions:     128
 Number of N-1 electron functions:    2352

 Number of internal configurations:                  288
 Number of singly external configurations:        143472
 Number of doubly external configurations:        972960
 Total number of contracted configurations:      1116720
 Total number of uncontracted configurations:   29245120

 Diagonal Coupling coefficients finished.               Storage:  189082 words, CPU-Time:      0.05 seconds.
 Energy denominators for pairs finished in 1 passes.    Storage:  361900 words, CPU-time:      0.01 seconds.

  ITER. STATE  ROOT     SQ.NORM     CORR.ENERGY   TOTAL ENERGY   ENERGY CHANGE       DEN1      VAR(S)    VAR(P)      TIME
    1     1     1     1.00000000     0.00000000  -686.11229897     0.00000000    -0.29623084  0.79D-01  0.73D-01     0.13
    1     2     2     1.00000000     0.00000000  -685.99627948     0.00000000    -0.25240279  0.55D-01  0.61D-01     0.13
    2     1     1     1.11972194    -0.26326471  -686.37556369    -0.26326471    -0.01042348  0.32D-02  0.21D-02     6.79
    2     2     2     1.10602354    -0.24185866  -686.23813814    -0.24185866    -0.00662193  0.17D-02  0.14D-02     6.79
    3     1     1     1.12355477    -0.27361031  -686.38590929    -0.01034560    -0.00071124  0.17D-03  0.16D-03    13.43
    3     2     2     1.11220630    -0.24921398  -686.24549345    -0.00735531    -0.00047455  0.12D-03  0.10D-03    13.43
    4     1     1     1.12713217    -0.27440098  -686.38669996    -0.00079067    -0.00007007  0.22D-04  0.14D-04    20.07
    4     2     2     1.11579980    -0.24976707  -686.24604654    -0.00055309    -0.00004989  0.16D-04  0.97D-05    20.07
    5     1     1     1.12827374    -0.27448122  -686.38678019    -0.00008023    -0.00000990  0.31D-05  0.19D-05    26.73
    5     2     2     1.11653109    -0.24982947  -686.24610895    -0.00006240    -0.00000843  0.33D-05  0.14D-05    26.73
    6     1     1     1.12838359    -0.27449272  -686.38679170    -0.00001151    -0.00000161  0.60D-06  0.28D-06    33.39
    6     2     2     1.11656162    -0.24983990  -686.24611938    -0.00001043    -0.00000178  0.59D-06  0.30D-06    33.39
    7     1     1     1.12842124    -0.27449456  -686.38679354    -0.00000184    -0.00000032  0.14D-06  0.51D-07    40.00
    7     2     2     1.11662864    -0.24984209  -686.24612157    -0.00000219    -0.00000043  0.18D-06  0.62D-07    40.00
    8     1     1     1.12844641    -0.27449493  -686.38679390    -0.00000036    -0.00000007  0.28D-07  0.10D-07    46.47
    8     2     2     1.11665669    -0.24984260  -686.24612207    -0.00000050    -0.00000011  0.45D-07  0.15D-07    46.47
    9     1     1     1.12845194    -0.27449500  -686.38679397    -0.00000007    -0.00000002  0.69D-08  0.21D-08    52.97
    9     2     2     1.11665853    -0.24984272  -686.24612220    -0.00000013    -0.00000003  0.12D-07  0.42D-08    52.97
   10     1     1     1.12845354    -0.27449500  -686.38679397    -0.00000000    -0.00000001  0.66D-08  0.20D-08    57.43
   10     2     2     1.11666826    -0.24984277  -686.24612224    -0.00000004    -0.00000000  0.12D-08  0.55D-09    57.43


 =====================================
 Analysis of CPU times by interactions
 =====================================

       I      S      P

 I   0.2%
 S   0.1%   2.4%
 P   0.5%   8.3%  46.2%

 Initialization:   0.1%
 Other:           42.2%

 Total CPU:       57.4 seconds
 =====================================



 gnormi=  0.88616851  gnorms=  0.04930420  gnormp=  0.06452728  gnorm=  1.00000000
 ecorri= -0.24324883  ecorrs= -0.01353411  ecorrp= -0.01771206  ecorr= -0.27449500

 gnormi=  0.89552111  gnorms=  0.04620395  gnormp=  0.05827493  gnorm=  1.00000000
 ecorri= -0.22373947  ecorrs= -0.01154430  ecorrp= -0.01455899  ecorr= -0.24984277

 Wavefunction saved on  7430.2

 Reference coefficients greater than 0.0500000
 =============================================
 22/02\20           0.9187475  -0.0306809
 222/\020           0.0386429   0.8763255
 2/202\20          -0.0667826   0.2673783
 22/0\220          -0.0548358  -0.1075095
 2/20\220          -0.0907327  -0.0045840
 2/202\/\           0.0777020  -0.0170149
 220/2\20           0.0433811   0.0776979
 220/\220           0.0073719  -0.0757109
 220/\022          -0.0019306  -0.0644598
 222/0\20          -0.0056917  -0.0548604
 2/\/2\20          -0.0410990  -0.0544147
 22/02/\\           0.0282382   0.0524560
 22/02\02          -0.0508382  -0.0031183

 Coefficients of fixed reference functions:
 ==========================================

 State      Coefficients
 1           0.940035   -0.003137
 2           0.001009    0.945291

 Coefficients of rotated reference functions:
 ============================================

 State      Coefficients
 1           0.940040   -0.001070
 2          -0.001070    0.945291


 RESULTS FOR STATE 1.2
 =====================

 Coefficient of reference function:   C(0) = 0.94003532 (fixed)   0.94136524 (relaxed)   0.94003995 (rotated)

 Energy contributions of configuration classes

 CLASS          SQ.NORM        ECORR1        ECORR2
 +++++++++++++++++++++++++++++++++++++++++++++++++++
 Internals    0.00282163    0.00000029   -0.17552208
 Singles      0.05579449   -0.07629287   -0.08095222
 Pairs        0.07302150   -0.00034927   -0.01802070
 Total        1.13163763   -0.07664185   -0.27449500
 +++++++++++++++++++++++++++++++++++++++++++++++++++


 Reference energy                    -686.11229841
 Nuclear energy                        79.02379683
 Kinetic energy                       688.59501139
 One electron energy                -1107.33278273
 Two electron energy                  341.92219193
 Virial quotient                       -0.99679316
 Correlation energy                    -0.27449556
 !MRCI STATE 1.2 Energy              -686.386793973454

 Properties without orbital relaxation:

 !MRCI STATE 1.2 Dipole moment          0.00000000     0.00000000     0.08060763
 Dipole moment /Debye                   0.00000000     0.00000000     0.20488417

 Cluster corrected energies          -686.42292792 (Davidson, fixed reference)
 Cluster corrected energies          -686.42205390 (Davidson, relaxed reference)
 Cluster corrected energies          -686.42292792 (Davidson, rotated reference)

 Cluster corrected energies          -686.41807817 (Pople, fixed reference)
 Cluster corrected energies          -686.41726337 (Pople, relaxed reference)
 Cluster corrected energies          -686.41807817 (Pople, rotated reference)







 RESULTS FOR STATE 2.2
 =====================

 Coefficient of reference function:   C(0) = 0.94529148 (fixed)   0.94631977 (relaxed)   0.94529142 (rotated)

 Energy contributions of configuration classes

 CLASS          SQ.NORM        ECORR1        ECORR2
 +++++++++++++++++++++++++++++++++++++++++++++++++++
 Internals    0.00217693    0.00000029   -0.00048849
 Singles      0.05170681   -0.07318583   -0.07694139
 Pairs        0.06521543   -0.17665416   -0.17241289
 Total        1.11909916   -0.24983970   -0.24984277
 +++++++++++++++++++++++++++++++++++++++++++++++++++


 Reference energy                    -685.99628004
 Nuclear energy                        79.02379683
 Kinetic energy                       688.60002494
 One electron energy                -1104.15193450
 Two electron energy                  338.88201543
 Virial quotient                       -0.99658161
 Correlation energy                    -0.24984221
 !MRCI STATE 2.2 Energy              -686.246122242311

 Properties without orbital relaxation:

 !MRCI STATE 2.2 Dipole moment          0.00000000     0.00000000    -0.33920108
 Dipole moment /Debye                   0.00000000     0.00000000    -0.86216315

 Cluster corrected energies          -686.27587824 (Davidson, fixed reference)
 Cluster corrected energies          -686.27527090 (Davidson, relaxed reference)
 Cluster corrected energies          -686.27587824 (Davidson, rotated reference)

 Cluster corrected energies          -686.27169190 (Pople, fixed reference)
 Cluster corrected energies          -686.27113356 (Pople, relaxed reference)
 Cluster corrected energies          -686.27169190 (Pople, rotated reference)






 !MRCI trans          <2.2|DMZ|1.2>    -0.248714465658 au =    -0.632169115919 Debye


 **********************************************************************************************************************************
 DATASETS  * FILE   NREC   LENGTH (MB)   RECORD NAMES
              1      21      585.24       500      700      610      701      900      950      970     1000      129      960   
                                          VAR     GEOM    BASINP    GEOM    SYMINP    ZMAT    AOBASIS   BASIS     P2S    ABASIS    
                                         1100     1400     1410     1200     1210     1080     1600     1650     1300     1700   
                                           S        T        V       H0       H01     AOSYM     SMH    MOLCAS    ERIS     OPER   
                                         1380   
                                         JKOP   

              2      10       55.60       500      610      700     1000      520     2100     2140      701     8430     7430   
                                          VAR    BASINP    GEOM     BASIS   MCVARS     RHF     MCSCF    GEOM     MRCI     MRCI   

 PROGRAMS   *        TOTAL        CI        CI     MULTI       INT   RESTART
 CPU TIMES  *       156.78     57.63     58.80      2.51     37.71      0.01
 REAL TIME  *       163.29 SEC
 DISK USED  *         1.81 GB
 **********************************************************************************************************************************


 PROGRAM * CI (Multireference internally contracted CI)     Authors: H.-J. Werner, P.J. Knowles, 1987


 Ket wavefunction restored from record 8430.2 to file 8
 Bra wavefunction restored from record 7430.2 to file 7
 !MRCI trans           <1.2|LZ|1.3>    -0.999503963396i
 !MRCI trans           <1.2|LZ|2.3>    -0.000007759362i
 !MRCI trans           <2.2|LZ|1.3>    -0.000007759512i
 !MRCI trans           <2.2|LZ|2.3>    -0.999630924074i


 **********************************************************************************************************************************
 DATASETS  * FILE   NREC   LENGTH (MB)   RECORD NAMES
              1      21      585.24       500      700      610      701      900      950      970     1000      129      960   
                                          VAR     GEOM    BASINP    GEOM    SYMINP    ZMAT    AOBASIS   BASIS     P2S    ABASIS    
                                         1100     1400     1410     1200     1210     1080     1600     1650     1300     1700   
                                           S        T        V       H0       H01     AOSYM     SMH    MOLCAS    ERIS     OPER   
                                         1380   
                                         JKOP   

              2      10       55.60       500      610      700     1000      520     2100     2140      701     8430     7430   
                                          VAR    BASINP    GEOM     BASIS   MCVARS     RHF     MCSCF    GEOM     MRCI     MRCI   

 PROGRAMS   *        TOTAL        CI        CI        CI     MULTI       INT   RESTART
 CPU TIMES  *       157.24      0.47     57.63     58.80      2.51     37.71      0.01
 REAL TIME  *       163.84 SEC
 DISK USED  *         1.81 GB
 **********************************************************************************************************************************

              CI              CI           MULTI
   -686.24612224   -686.24612224   -685.95627953
 **********************************************************************************************************************************
 Molpro calculation terminated
