
 Working directory              : /tmp/molpro/molpro.WA3HXP6K9U/
 Global scratch directory       : /tmp/molpro/molpro.WA3HXP6K9U/
 Wavefunction directory         : /home/molpro/wfu/
 Main file repository           : /tmp/molpro/molpro.WA3HXP6K9U/

 id        : gskim

 Nodes                nprocs
 localhost.localdomain    1
 GA implementation: MPI file
 GA implementation (serial work in mppx): MPI file

 Using customized tuning parameters: mindgm=1; mindgv=20; mindgc=4; mindgr=1; noblas=0; minvec=7
 default implementation of scratch files=df  


 Variables initialized (1009), CPU time= 0.00 sec
 ***,spin orbital  Calculations   for SiS from 1sig+ to 3sig+
 file,2,sis3sigp-1sigp-lsx.wfu
 memory,1500,M
 geometry={angstrom;
 Si
 S,Si,r(i)}
 basis=av5z
 r=[1.12,1.125,1.13,1.135,1.14,1.145,1.15,1.155,1.16,1.65,1.17,1.175,1.18,1.185,1.19,1.195,1.20,1.205,1.21,1.215,1.22,1.225,1.23,1.235,1.24,1.245,1.25,1.255,1.26,1.265,1.27,1.275,1.28,1.285,1.29,1.295,1.30,1.31,1.32,1.33,1.34,1.35,1.36,1.37,1.38,1.39,1.40,1.41,1.42,1.43,1.44,1.45,1.46,1.47,1.48,1.49,1.50,1.51,1.52,1.53,1.54,1.55,1.56,1.57,1.58,1.59,1.60,1.61,1.62,1.63,1.64,1.65,1.66,1.67,1.68,1.69,1.70,1.71,1.72,1.73,1.74,1.75,1.76,1.77,1.80,1.81,1.82,1.83,1.84,1.85,1.86,1.87,1.88,1.89,1.90,1.91,1.92,1.93,1.94,1.95,1.957,1.96,1.97,1.98,1.99,2.00,2.01,2.02,2.03,2.04,2.05,2.06,2.07,2.08,2.09,2.10,2.11,2.112,2.12,2.13,2.14,2.15,2.16,2.17,2.18,2.19,2.20,2.21,2.22,2.23,2.24,2.25,2.26,2.27,2.28,2.29,2.30,2.32,2.34,2.36,2.38,2.4,2.42,2.44,2.46,2.48,2.5,2.52,2.54,2.56,2.58,2.6,2.62,2.64,2.66,2.68,2.7,2.72,2.74,2.76,2.78,2.8,2.82,2.84,2.86,2.88,2.90,2.92,2.94,2.96,2.98,3.00,3.02,3.04,3.06,3.08,3.10,3.12,3.14,3.16,3.18,3.20,3.22,3.24,3.26,3.28,3.30,3.35,3.4,3.45,3.5]
 do i=1,#r
 int;
 
 Text,EAM calculation of SiS  1sig+ to 3sig+  using  av5z
 
 {multi;occ,10,4,4;close,6,2,2;start,2140.2;orbital,2140.2;natorb,,ci;wf,30,1,2;state,4;wf,30,1,0;state,4;maxiter,40;}
 
 {ci;occ,10,4,4;core,6,2,2;wf,30,1,2;state,3;orbital,2140.2;maxiter,250;option,maxiti=250;option,nstati=4;save,8520.2;}
 
 {ci;occ,10,4,4;core,6,2,2;wf,30,1,0;state,3;orbital,2140.2;maxiter,250;option,maxiti=250;option,nstati=4;save,7520.2;}
 
 {ci;hlsmat,ls,7520.2,8520.2;options,matel=1;PRINT}
 
 enddo
 
 Commands initialized (810), CPU time= 0.00 sec, 661 directives.
 Default parameters read. Elapsed time= 0.05 sec

 Checking input...
 Passed
1


                                         ***  PROGRAM SYSTEM MOLPRO  ***
                                       Copyright, TTI GmbH Stuttgart, 2015
                                    Version 2021.2 linked Jul 16 2021 07:37:36


 **********************************************************************************************************************************
 LABEL *   spin orbital  Calculations   for SiS from 1sig+ to 3sig+                      
  64 bit serial version                                                                  DATE: 13-Oct-24          TIME: 21:33:46  
 **********************************************************************************************************************************

 SHA1:             dade016a989826d9d859d6207854b99675d53db3
 **********************************************************************************************************************************

 Memory per process:      1500 MW
 Total memory per node:   1500 MW

 GA preallocation disabled
 GA check disabled

 Variable memory set to 1500.0 MW



 Permanent file  2  sis3sigp-1sigp-lsx.wfu           assigned.  Implementation=df    Size= 17.78 MB


 PROGRAM * RESTART 


 Reading variables from file 2

 _FNUC           =      0.00000000
 _BASIS          =    AV5Z
 _NELEC          =     30.00000000
 _PROGRAM        =    CI
 _DMX(2:3)       =      0.00000000     0.00000000
 _DMY(2:3)       =      0.00000000     0.00000000
 _DMZ(1:3)       =     -1.38145231    -0.53754185     1.06935628
 _DMX_SCF        =      0.00000000
 _DMY_SCF        =      0.00000000
 _DMZ_SCF        =      1.26944206
 _HOMO           =      4.20000000
 _EHOMO          =     -0.18665154
 _LUMO           =     10.10000000
 _ELUMO          =      0.02463773
 _ENERGD(1:3)    =   -685.10049494  -684.92139230  -684.90564005
 _ENERGD0(1:3)   =   -685.10049494  -684.92139230  -684.90564005
 _ENERGD1(1:3)   =   -685.10084043  -684.92219309  -684.90594267
 _ENERGD2(1:3)   =   -685.10084043  -684.92219309  -684.90594267
 _ENERGD3(1:3)   =   -685.10049494  -684.92139230  -684.90564005
 _ENERGD4(1:3)   =   -685.10084043  -684.92219309  -684.90594267
 _ENERGP(1:3)    =   -685.09485945  -684.91376025  -684.89890376
 _ENERGP0(1:3)   =   -685.09485945  -684.91376025  -684.89890376
 _ENERGP1(1:3)   =   -685.09514684  -684.91445686  -684.89915937
 _ENERGP2(1:3)   =   -685.09514684  -684.91445686  -684.89915937
 _ENERGP3(1:3)   =   -685.09485945  -684.91376025  -684.89890376
 _ENERGP4(1:3)   =   -685.09514684  -684.91445686  -684.89915937
 _ENERGR(1:3)    =   -684.82246826  -684.62563547  -684.60503781
 _ENERGRR(1:3)   =   -684.82237099  -684.62569035  -684.60508020
 _ENERGY(1:3)    =   -685.07359006  -684.88136142  -684.87245370
 _ENERGY_METHOD  =    CI
 _ENERGY_BASIS   =    aug-cc-pV5Z
 _ENERGY_AVRG    =   -684.65894862
 _ENUC           =    105.83544218
 _IPROC_MPP      =      0.00000000
 _IPROC_MPPX     =      0.00000000
 _ORBITAL        =   2140.20000000
 _ROOT(1:3)      =      1.00000000     2.00000000     3.00000000
 _STATUS         =      1.00000000
 _TROV           =      0.00000000
 _DATE           =    10-Oct-24
 _LASTORB        =    MCSCF
 _OUTPUT         =    /home/molpro/SiS-3oct2024/dir-6/sis112-3sigp3mc.out
 _PGROUP         =    C2v 
 _TIME           =    00:09:10
 _C0(1:3)        =      0.90326299     0.86462424     0.88958488
 _C0R(1:3)       =      0.90214230     0.86228909     0.88869010
 _DMX_CC(1:4)    =     -0.00000000    -0.00000000    -0.00000000    -0.00000000
 _DMY_CC(1:4)    =     -0.00000000    -0.00000000    -0.00000000    -0.00000000
 _DMZ_CC(1:4)    =      1.33716040     1.33716040     1.33716040     1.33716040
 _DMX_NUC(1:4)   =      0.00000000     0.00000000     0.00000000     0.00000000
 _DMY_NUC(1:4)   =      0.00000000     0.00000000     0.00000000     0.00000000
 _DMZ_NUC(1:4)   =      0.01858008     0.01858008     0.01858008     0.01858008
 _SYM_CATION     =      2.00000000
 R               =      1.12000000
 _TRDMX(1:3)     =      0.00000000    -0.00000000     0.00000000
 _TRDMY(1:3)     =      0.00000000    -0.00000000     0.00000000
 _TRDMZ(1:3)     =     -0.58383427     0.03038155     0.24281836

 Geometry written to block  1 of record 700


 **********************************************************************************************************************************
 DATASETS  * FILE   NREC   LENGTH (MB)   RECORD NAMES
              2       7       17.78       500      610      700     1000      520     2100     2140   
                                          VAR    BASINP    GEOM     BASIS   MCVARS     RHF     MCSCF   

 PROGRAMS   *        TOTAL   RESTART
 CPU TIMES  *         0.10      0.01
 REAL TIME  *         0.12 SEC
 DISK USED  *        29.25 MB
 **********************************************************************************************************************************
 SETTING BASIS          =    AV5Z
 SETTING R(1)           =         1.12000000                                  
 SETTING R(2)           =         1.12500000                                  
 SETTING R(3)           =         1.13000000                                  
 SETTING R(4)           =         1.13500000                                  
 SETTING R(5)           =         1.14000000                                  
 SETTING R(6)           =         1.14500000                                  
 SETTING R(7)           =         1.15000000                                  
 SETTING R(8)           =         1.15500000                                  
 SETTING R(9)           =         1.16000000                                  
 SETTING R(10)          =         1.65000000                                  
 SETTING R(11)          =         1.17000000                                  
 SETTING R(12)          =         1.17500000                                  
 SETTING R(13)          =         1.18000000                                  
 SETTING R(14)          =         1.18500000                                  
 SETTING R(15)          =         1.19000000                                  
 SETTING R(16)          =         1.19500000                                  
 SETTING R(17)          =         1.20000000                                  
 SETTING R(18)          =         1.20500000                                  
 SETTING R(19)          =         1.21000000                                  
 SETTING R(20)          =         1.21500000                                  
 SETTING R(21)          =         1.22000000                                  
 SETTING R(22)          =         1.22500000                                  
 SETTING R(23)          =         1.23000000                                  
 SETTING R(24)          =         1.23500000                                  
 SETTING R(25)          =         1.24000000                                  
 SETTING R(26)          =         1.24500000                                  
 SETTING R(27)          =         1.25000000                                  
 SETTING R(28)          =         1.25500000                                  
 SETTING R(29)          =         1.26000000                                  
 SETTING R(30)          =         1.26500000                                  
 SETTING R(31)          =         1.27000000                                  
 SETTING R(32)          =         1.27500000                                  
 SETTING R(33)          =         1.28000000                                  
 SETTING R(34)          =         1.28500000                                  
 SETTING R(35)          =         1.29000000                                  
 SETTING R(36)          =         1.29500000                                  
 SETTING R(37)          =         1.30000000                                  
 SETTING R(38)          =         1.31000000                                  
 SETTING R(39)          =         1.32000000                                  
 SETTING R(40)          =         1.33000000                                  
 SETTING R(41)          =         1.34000000                                  
 SETTING R(42)          =         1.35000000                                  
 SETTING R(43)          =         1.36000000                                  
 SETTING R(44)          =         1.37000000                                  
 SETTING R(45)          =         1.38000000                                  
 SETTING R(46)          =         1.39000000                                  
 SETTING R(47)          =         1.40000000                                  
 SETTING R(48)          =         1.41000000                                  
 SETTING R(49)          =         1.42000000                                  
 SETTING R(50)          =         1.43000000                                  
 SETTING R(51)          =         1.44000000                                  
 SETTING R(52)          =         1.45000000                                  
 SETTING R(53)          =         1.46000000                                  
 SETTING R(54)          =         1.47000000                                  
 SETTING R(55)          =         1.48000000                                  
 SETTING R(56)          =         1.49000000                                  
 SETTING R(57)          =         1.50000000                                  
 SETTING R(58)          =         1.51000000                                  
 SETTING R(59)          =         1.52000000                                  
 SETTING R(60)          =         1.53000000                                  
 SETTING R(61)          =         1.54000000                                  
 SETTING R(62)          =         1.55000000                                  
 SETTING R(63)          =         1.56000000                                  
 SETTING R(64)          =         1.57000000                                  
 SETTING R(65)          =         1.58000000                                  
 SETTING R(66)          =         1.59000000                                  
 SETTING R(67)          =         1.60000000                                  
 SETTING R(68)          =         1.61000000                                  
 SETTING R(69)          =         1.62000000                                  
 SETTING R(70)          =         1.63000000                                  
 SETTING R(71)          =         1.64000000                                  
 SETTING R(72)          =         1.65000000                                  
 SETTING R(73)          =         1.66000000                                  
 SETTING R(74)          =         1.67000000                                  
 SETTING R(75)          =         1.68000000                                  
 SETTING R(76)          =         1.69000000                                  
 SETTING R(77)          =         1.70000000                                  
 SETTING R(78)          =         1.71000000                                  
 SETTING R(79)          =         1.72000000                                  
 SETTING R(80)          =         1.73000000                                  
 SETTING R(81)          =         1.74000000                                  
 SETTING R(82)          =         1.75000000                                  
 SETTING R(83)          =         1.76000000                                  
 SETTING R(84)          =         1.77000000                                  
 SETTING R(85)          =         1.80000000                                  
 SETTING R(86)          =         1.81000000                                  
 SETTING R(87)          =         1.82000000                                  
 SETTING R(88)          =         1.83000000                                  
 SETTING R(89)          =         1.84000000                                  
 SETTING R(90)          =         1.85000000                                  
 SETTING R(91)          =         1.86000000                                  
 SETTING R(92)          =         1.87000000                                  
 SETTING R(93)          =         1.88000000                                  
 SETTING R(94)          =         1.89000000                                  
 SETTING R(95)          =         1.90000000                                  
 SETTING R(96)          =         1.91000000                                  
 SETTING R(97)          =         1.92000000                                  
 SETTING R(98)          =         1.93000000                                  
 SETTING R(99)          =         1.94000000                                  
 SETTING R(100)         =         1.95000000                                  
 SETTING R(101)         =         1.95700000                                  
 SETTING R(102)         =         1.96000000                                  
 SETTING R(103)         =         1.97000000                                  
 SETTING R(104)         =         1.98000000                                  
 SETTING R(105)         =         1.99000000                                  
 SETTING R(106)         =         2.00000000                                  
 SETTING R(107)         =         2.01000000                                  
 SETTING R(108)         =         2.02000000                                  
 SETTING R(109)         =         2.03000000                                  
 SETTING R(110)         =         2.04000000                                  
 SETTING R(111)         =         2.05000000                                  
 SETTING R(112)         =         2.06000000                                  
 SETTING R(113)         =         2.07000000                                  
 SETTING R(114)         =         2.08000000                                  
 SETTING R(115)         =         2.09000000                                  
 SETTING R(116)         =         2.10000000                                  
 SETTING R(117)         =         2.11000000                                  
 SETTING R(118)         =         2.11200000                                  
 SETTING R(119)         =         2.12000000                                  
 SETTING R(120)         =         2.13000000                                  
 SETTING R(121)         =         2.14000000                                  
 SETTING R(122)         =         2.15000000                                  
 SETTING R(123)         =         2.16000000                                  
 SETTING R(124)         =         2.17000000                                  
 SETTING R(125)         =         2.18000000                                  
 SETTING R(126)         =         2.19000000                                  
 SETTING R(127)         =         2.20000000                                  
 SETTING R(128)         =         2.21000000                                  
 SETTING R(129)         =         2.22000000                                  
 SETTING R(130)         =         2.23000000                                  
 SETTING R(131)         =         2.24000000                                  
 SETTING R(132)         =         2.25000000                                  
 SETTING R(133)         =         2.26000000                                  
 SETTING R(134)         =         2.27000000                                  
 SETTING R(135)         =         2.28000000                                  
 SETTING R(136)         =         2.29000000                                  
 SETTING R(137)         =         2.30000000                                  
 SETTING R(138)         =         2.32000000                                  
 SETTING R(139)         =         2.34000000                                  
 SETTING R(140)         =         2.36000000                                  
 SETTING R(141)         =         2.38000000                                  
 SETTING R(142)         =         2.40000000                                  
 SETTING R(143)         =         2.42000000                                  
 SETTING R(144)         =         2.44000000                                  
 SETTING R(145)         =         2.46000000                                  
 SETTING R(146)         =         2.48000000                                  
 SETTING R(147)         =         2.50000000                                  
 SETTING R(148)         =         2.52000000                                  
 SETTING R(149)         =         2.54000000                                  
 SETTING R(150)         =         2.56000000                                  
 SETTING R(151)         =         2.58000000                                  
 SETTING R(152)         =         2.60000000                                  
 SETTING R(153)         =         2.62000000                                  
 SETTING R(154)         =         2.64000000                                  
 SETTING R(155)         =         2.66000000                                  
 SETTING R(156)         =         2.68000000                                  
 SETTING R(157)         =         2.70000000                                  
 SETTING R(158)         =         2.72000000                                  
 SETTING R(159)         =         2.74000000                                  
 SETTING R(160)         =         2.76000000                                  
 SETTING R(161)         =         2.78000000                                  
 SETTING R(162)         =         2.80000000                                  
 SETTING R(163)         =         2.82000000                                  
 SETTING R(164)         =         2.84000000                                  
 SETTING R(165)         =         2.86000000                                  
 SETTING R(166)         =         2.88000000                                  
 SETTING R(167)         =         2.90000000                                  
 SETTING R(168)         =         2.92000000                                  
 SETTING R(169)         =         2.94000000                                  
 SETTING R(170)         =         2.96000000                                  
 SETTING R(171)         =         2.98000000                                  
 SETTING R(172)         =         3.00000000                                  
 SETTING R(173)         =         3.02000000                                  
 SETTING R(174)         =         3.04000000                                  
 SETTING R(175)         =         3.06000000                                  
 SETTING R(176)         =         3.08000000                                  
 SETTING R(177)         =         3.10000000                                  
 SETTING R(178)         =         3.12000000                                  
 SETTING R(179)         =         3.14000000                                  
 SETTING R(180)         =         3.16000000                                  
 SETTING R(181)         =         3.18000000                                  
 SETTING R(182)         =         3.20000000                                  
 SETTING R(183)         =         3.22000000                                  
 SETTING R(184)         =         3.24000000                                  
 SETTING R(185)         =         3.26000000                                  
 SETTING R(186)         =         3.28000000                                  
 SETTING R(187)         =         3.30000000                                  
 SETTING R(188)         =         3.35000000                                  
 SETTING R(189)         =         3.40000000                                  
 SETTING R(190)         =         3.45000000                                  
 SETTING R(191)         =         3.50000000                                  

 DO I                   =         1.00000000   


 Using spherical harmonics

 Library entry SI     S aug-cc-pV5Z          selected for orbital group  1
 Library entry SI     P aug-cc-pV5Z          selected for orbital group  1
 Library entry SI     D aug-cc-pV5Z          selected for orbital group  1
 Library entry SI     F aug-cc-pV5Z          selected for orbital group  1
 Library entry SI     G aug-cc-pV5Z          selected for orbital group  1
 Library entry SI     H aug-cc-pV5Z          selected for orbital group  1
 Library entry S      S aug-cc-pV5Z          selected for orbital group  2
 Library entry S      P aug-cc-pV5Z          selected for orbital group  2
 Library entry S      D aug-cc-pV5Z          selected for orbital group  2
 Library entry S      F aug-cc-pV5Z          selected for orbital group  2
 Library entry S      G aug-cc-pV5Z          selected for orbital group  2
 Library entry S      H aug-cc-pV5Z          selected for orbital group  2


 PROGRAM * SEWARD (Integral evaluation for generally contracted gaussian basis sets)     Author: Roland Lindh, 1990

 Geometry written to block  1 of record 701

 Orientation using atomic masses  
 Molecule type: Linear
 Symmetry elements: X,Y
 Rotational constants:      26.9115434     26.9115434      0.0000000 GHz  (calculated with average atomic masses)

 Point group  C2v 



 ATOMIC COORDINATES

 NR  ATOM    CHARGE       X              Y              Z

   1  SI     14.00    0.000000000    0.000000000   -1.128177069
   2  S      16.00    0.000000000    0.000000000    0.988316191

 Bond lengths in Bohr (Angstrom)

 1-2  2.116493260
     ( 1.120000000)

 NUCLEAR CHARGE:                   30
 NUMBER OF PRIMITIVE AOS:         434
 NUMBER OF SYMMETRY AOS:          324
 NUMBER OF CONTRACTIONS:          262   (   96A1  +   64B1  +   64B2  +   38A2  )
 NUMBER OF INNER CORE ORBITALS:     2   (    2A1  +    0B1  +    0B2  +    0A2  )
 NUMBER OF OUTER CORE ORBITALS:     8   (    4A1  +    2B1  +    2B2  +    0A2  )
 NUMBER OF VALENCE ORBITALS:        8   (    4A1  +    2B1  +    2B2  +    0A2  )


 NUCLEAR REPULSION ENERGY  105.83544218

 EXTRA SYMMETRY OF AOS IN SYMMETRY 1:   1 1 1 1 1 1 1 1 1 1   1 1 1 1 1 1 2 1 2 1   2 1 2 1 2 1 2 1 2 1   2 1 2 1 3 2 1 3 2 1
                                        3 2 2 3 1 2 3 1 1 1   1 1 1 1 1 1 1 1 1 1   1 1 1 1 2 1 2 1 2 1   2 1 2 1 2 1 2 1 2 1
                                        2 1 3 2 1 3 2 1 3 2   2 3 1 2 3 1
 EXTRA SYMMETRY OF AOS IN SYMMETRY 2:   1 1 1 1 1 1 1 1 1 1   1 1 1 2 1 2 1 2 1 2   1 2 1 2 1 2 1 2 3 1   2 3 1 1 1 1 1 1 1 1
                                        1 1 1 1 1 2 1 2 1 2   1 2 1 2 1 2 1 2 1 2   3 1 2 3
 EXTRA SYMMETRY OF AOS IN SYMMETRY 3:   1 1 1 1 1 1 1 1 1 1   1 1 1 2 1 2 1 2 1 2   1 2 1 2 1 2 1 2 3 1   2 3 1 1 1 1 1 1 1 1
                                        1 1 1 1 1 2 1 2 1 2   1 2 1 2 1 2 1 2 1 2   3 1 2 3
 EXTRA SYMMETRY OF AOS IN SYMMETRY 4:   1 1 1 1 1 1 1 1 1 1   2 1 2 1 2 2 1 2 1 1   1 1 1 1 1 1 1 1 1 2   1 2 1 2 2 1 2 1

 Eigenvalues of metric

         1 0.360E-05 0.406E-05 0.648E-05 0.112E-04 0.140E-04 0.375E-04 0.527E-04 0.132E-03
         2 0.675E-05 0.717E-05 0.592E-04 0.192E-03 0.416E-03 0.810E-03 0.216E-02 0.265E-02
         3 0.675E-05 0.717E-05 0.592E-04 0.192E-03 0.416E-03 0.810E-03 0.216E-02 0.265E-02
         4 0.231E-03 0.179E-02 0.377E-02 0.785E-02 0.128E-01 0.361E-01 0.467E-01 0.588E-01


 Contracted 2-electron integrals neglected if value below      1.0D-12
 AO integral compression algorithm  1   Integral accuracy      1.0D-12

     687.604 MB (compressed) written to integral file ( 47.4%)


 NUMBER OF SORTED TWO-ELECTRON INTEGRALS:  150955559.     BUFFER LENGTH:  32768
 NUMBER OF SEGMENTS:  10  SEGMENT LENGTH:   15998976      RECORD LENGTH: 524288

 Memory used in sort:      16.56 MW

 SORT1 READ   181316810. AND WROTE   100604353. INTEGRALS IN    293 RECORDS. CPU TIME:     2.10 SEC, REAL TIME:     2.63 SEC
 SORT2 READ   100604353. AND WROTE   150955559. INTEGRALS IN   2623 RECORDS. CPU TIME:     1.67 SEC, REAL TIME:     1.97 SEC

 FILE SIZES:   FILE 1:   719.3 MBYTE,  FILE 4:  1229.0 MBYTE,   TOTAL:   1948.3 MBYTE

 OPERATOR DM      FOR CENTER  0  COORDINATES:    0.000000    0.000000    0.000000


 **********************************************************************************************************************************
 DATASETS  * FILE   NREC   LENGTH (MB)   RECORD NAMES
              1      20      568.43       500      700      610      701      900      950      970     1000      129      960   
                                          VAR     GEOM    BASINP    GEOM    SYMINP    ZMAT    AOBASIS   BASIS     P2S    ABASIS    
                                         1100     1400     1410     1200     1210     1080     1600     1650     1300     1700   
                                           S        T        V       H0       H01     AOSYM     SMH    MOLCAS    ERIS     OPER   

              2       8       18.38       500      610      700     1000      520     2100     2140      701   
                                          VAR    BASINP    GEOM     BASIS   MCVARS     RHF     MCSCF    GEOM   

 PROGRAMS   *        TOTAL       INT   RESTART
 CPU TIMES  *        38.30     38.19      0.01
 REAL TIME  *        39.74 SEC
 DISK USED  *         1.83 GB
 **********************************************************************************************************************************

 PROGRAM * MULTI (Direct Multiconfiguration SCF)       Authors: P.J. Knowles, H.-J. Werner (1984)
                                                                D.A. Kreplin, P.J. Knowles, H.-J. Werner (2019)

 Number of closed-shell orbitals:  10 (   6   2   2   0 )
 Number of active  orbitals:        8 (   4   2   2   0 )
 Number of external orbitals:     244 (  86  60  60  38 )

 State symmetry 1

 Number of active electrons:  10    Spin symmetry=Triplet   Space symmetry=1
 Number of states:             4
 Number of CSFs:             360   (464 determinants, 1960 intermediate states)

 State symmetry 2

 Number of active electrons:  10    Spin symmetry=Singlet   Space symmetry=1
 Number of states:             4
 Number of CSFs:             328   (792 determinants, 3136 intermediate states)

 Molecular orbitals read from record     2140.2  Type=MCSCF/NATURAL (state averaged)

 EXTRA SYMMETRY OF MOS IN SYMMETRY 1:   1 1 1 1 1 1 1 1 1 1   1 1 1 2 1 1 2 1 2 1   1 2 1 1 2 1 1 2 3 2   1 1 2 1 1 2 1 3 1 2
                                        1 2 1 2 1 1 3 2 1 2   3 1 1 1 2 2 3 1 2 1   2 1 3 1 2 1 2 1 3 2   3 1 1 2 1 2 1 2 1 3
                                        1 1 3 2 2 1 1 2 1 1   2 1 1 1 1 1
 EXTRA SYMMETRY OF MOS IN SYMMETRY 2:   1 1 1 1 1 1 1 1 2 1   1 1 1 2 1 1 2 1 2 1   1 2 1 1 1 2 1 2 3 1   2 1 2 1 1 1 2 3 1 2
                                        1 2 1 2 1 3 1 1 2 1   2 1 2 1 3 1 2 1 2 1   1 1 1 1
 EXTRA SYMMETRY OF MOS IN SYMMETRY 3:   1 1 1 1 1 1 1 1 2 1   1 1 1 2 1 1 2 1 2 1   1 2 1 1 1 2 1 2 3 1   2 1 2 1 1 1 2 3 1 2
                                        1 2 1 2 1 3 1 1 2 1   2 1 2 1 3 1 2 1 2 1   1 1 1 1
 EXTRA SYMMETRY OF MOS IN SYMMETRY 4:   1 1 1 1 1 1 2 1 1 1   2 1 1 1 2 1 1 2 1 1   2 1 1 2 1 1 2 1 2 1   1 1 2 2 1 1 1 1

 Wavefunction dump at record             2140.2

 Convergence thresholds  0.10E-04 (gradient)  0.10E-05 (energy)

 Weight factors for state symmetry  1:    0.12500   0.12500   0.12500   0.12500
 Weight factors for state symmetry  2:    0.12500   0.12500   0.12500   0.12500
 
 Number of orbital rotations:  1372  ( 32 closed/active, 756 closed/virtual, 0 active/active, 584 active/virtual )
 Total number of variables:    6396
 
  Second-order MCSCF: L-BFGS accelerated
 
 ITER  MIC  NCI  NEG     ENERGY(VAR)    ENERGY(PROJ) ENERGY CHANGE       GRAD(0)  GRAD(ORB)   GRAD(CI)      STEP      TIME
   1   11   38    0   -684.71132981    -684.71451441   -0.00318460    0.06482184 0.00019688 0.00018340  0.14E+00      1.68
   2   16   47    0   -684.71456036    -684.71456304   -0.00000269    0.00131846 0.00000122 0.00000034  0.50E-02      3.48
   3    9   21    0   -684.71456305    -684.71456305   -0.00000000    0.00000229 0.00000001 0.00000016  0.14E-04      5.07

 CONVERGENCE REACHED!  Final gradient:    0.00000003 ( 0.29E-07)
                       Final energy:   -684.71456305
 
 Results for state 1.1 Triplet
 =============================
 !MCSCF STATE 1.1 Triplet Energy              -684.820355907662
 Nuclear energy                                105.83544218
 Kinetic energy                                691.62427631
 One electron energy                         -1152.16543518
 Two electron energy                           361.50963709
 Virial ratio                                    1.99016240
 
 !MCSCF STATE 1.1 Triplet Dipole moment          0.00000000     0.00000000    -1.52398974
 Dipole moment /Debye                            0.00000000     0.00000000    -3.87359555
 
 Results for state 2.1 Triplet
 =============================
 !MCSCF STATE 2.1 Triplet Energy              -684.623412155995
 Nuclear energy                                105.83544218
 Kinetic energy                                691.69988812
 One electron energy                         -1151.32897906
 Two electron energy                           360.87012472
 Virial ratio                                    1.98976944
 
 !MCSCF STATE 2.1 Triplet Dipole moment          0.00000000     0.00000000    -0.50404912
 Dipole moment /Debye                            0.00000000     0.00000000    -1.28116508
 
 Results for state 3.1 Triplet
 =============================
 !MCSCF STATE 3.1 Triplet Energy              -684.600576980374
 Nuclear energy                                105.83544218
 Kinetic energy                                692.22493096
 One electron energy                         -1153.45041112
 Two electron energy                           363.01439196
 Virial ratio                                    1.98898573
 
 !MCSCF STATE 3.1 Triplet Dipole moment          0.00000000     0.00000000     1.36093456
 Dipole moment /Debye                            0.00000000     0.00000000     3.45915063
 
 Results for state 4.1 Triplet
 =============================
 !MCSCF STATE 4.1 Triplet Energy              -684.580913341767
 Nuclear energy                                105.83544218
 Kinetic energy                                692.21923801
 One electron energy                         -1153.48237327
 Two electron energy                           363.06601775
 Virial ratio                                    1.98896545
 
 !MCSCF STATE 4.1 Triplet Dipole moment          0.00000000     0.00000000     1.35562948
 Dipole moment /Debye                            0.00000000     0.00000000     3.44566645
 
 Results for state 1.1 Singlet
 =============================
 !MCSCF STATE 1.1 Singlet Energy              -684.974689129520
 Nuclear energy                                105.83544218
 Kinetic energy                                693.46356321
 One electron energy                         -1158.64882414
 Two electron energy                           367.83869283
 Virial ratio                                    1.98775873
 
 !MCSCF STATE 1.1 Singlet Dipole moment          0.00000000     0.00000000     0.28445951
 Dipole moment /Debye                            0.00000000     0.00000000     0.72302396
 
 Results for state 2.1 Singlet
 =============================
 !MCSCF STATE 2.1 Singlet Energy              -684.802447769133
 Nuclear energy                                105.83544218
 Kinetic energy                                691.70232896
 One electron energy                         -1152.52490776
 Two electron energy                           361.88701781
 Virial ratio                                    1.99002478
 
 !MCSCF STATE 2.1 Singlet Dipole moment          0.00000000     0.00000000    -1.32816667
 Dipole moment /Debye                            0.00000000     0.00000000    -3.37586296
 
 Results for state 3.1 Singlet
 =============================
 !MCSCF STATE 3.1 Singlet Energy              -684.669650749052
 Nuclear energy                                105.83544218
 Kinetic energy                                691.43857856
 One electron energy                         -1154.59074110
 Two electron energy                           364.08564817
 Virial ratio                                    1.99021037
 
 !MCSCF STATE 3.1 Singlet Dipole moment          0.00000000     0.00000000     0.68068279
 Dipole moment /Debye                            0.00000000     0.00000000     1.73012307
 
 Results for state 4.1 Singlet
 =============================
 !MCSCF STATE 4.1 Singlet Energy              -684.644458352131
 Nuclear energy                                105.83544218
 Kinetic energy                                691.39658190
 One electron energy                         -1154.45717387
 Two electron energy                           363.97727334
 Virial ratio                                    1.99023408
 
 !MCSCF STATE 4.1 Singlet Dipole moment          0.00000000     0.00000000     0.76857474
 Dipole moment /Debye                            0.00000000     0.00000000     1.95352214
 
 State-averaged charge density matrix saved on record 2140.2 (density set 1)
 
 Expectation values: (only non-zero values are shown)
 
 !MCSCF expec       <1.1 Triplet|DMZ|1.1 Triplet>    -1.523989742335 au =    -3.873595552763 Debye
 !MCSCF expec       <2.1 Triplet|DMZ|2.1 Triplet>    -0.504049122741 au =    -1.281165080045 Debye
 !MCSCF expec       <3.1 Triplet|DMZ|3.1 Triplet>     1.360934564019 au =     3.459150628343 Debye
 !MCSCF expec       <4.1 Triplet|DMZ|4.1 Triplet>     1.355629481461 au =     3.445666453461 Debye
 !MCSCF expec       <1.1 Singlet|DMZ|1.1 Singlet>     0.284459511159 au =     0.723023959254 Debye
 !MCSCF expec       <2.1 Singlet|DMZ|2.1 Singlet>    -1.328166674542 au =    -3.375862960832 Debye
 !MCSCF expec       <3.1 Singlet|DMZ|3.1 Singlet>     0.680682786133 au =     1.730123071018 Debye
 !MCSCF expec       <4.1 Singlet|DMZ|4.1 Singlet>     0.768574742615 au =     1.953522141427 Debye
 
 Transition values: (only non-zero values with the ground state are shown)
 
 !MCSCF trans       <1.1 Singlet|DMZ|2.1 Singlet>     0.633000312985 au =     1.608926313061 Debye
 !MCSCF trans       <1.1 Singlet|DMZ|4.1 Singlet>     0.097257412815 au =     0.247203686014 Debye
 

 EXTRA SYMMETRY OF MOS IN SYMMETRY 1:   1 1 1 1 1 1 1 1 1 1   1 1 1 2 1 1 2 1 2 1   1 2 1 1 2 1 1 2 3 1   2 1 2 1 1 2 1 3 1 2
                                        1 2 1 2 1 1 3 2 1 3   2 1 1 1 2 2 3 1 2 1   2 1 3 1 2 1 2 1 3 2   3 1 1 2 1 2 1 2 1 3
                                        1 1 2 3 2 1 1 2 1 1   2 1 1 1 1 1
 EXTRA SYMMETRY OF MOS IN SYMMETRY 4:   1 1 1 1 1 1 2 1 1 1   2 1 1 1 2 1 2 1 1 1   2 1 1 2 1 1 2 1 2 1   1 1 2 1 2 1 1 1
 
 Natural orbital dump (state averaged) at molpro section 2140.2 (Orbital set 2)
 
 Reoptimze the CI vectors with natural orbitals 
 
 CI Coefficients of symmetry 1 (Triplet)
 =======================================
 
 22aa 20 20      0.98570664     -0.00088973     -0.00203958     -0.00000000
 2a2a 20 20     -0.00090114      0.95129142     -0.09547676      0.00000000
 2220 20 aa      0.00192116      0.06272313      0.68845829      0.68495170
 2220 aa 20     -0.00192116     -0.06272313     -0.68845829      0.68495170
 22aa 20 ba     -0.03171909     -0.14133965      0.01439953     -0.00331096
 22aa ba 20      0.03171909      0.14133965     -0.01439953     -0.00331096
 2aa0 22 20      0.00784680     -0.01997216     -0.08770523      0.13272152
 2aa0 20 22      0.00784680     -0.01997216     -0.08770523     -0.13272152
 2a0a 22 20      0.03838146     -0.07940129      0.00559738      0.00542094
 2a0a 20 22      0.03838146     -0.07940129      0.00559738     -0.00542094
 22aa 20 ab      0.01933140      0.07074359     -0.00007439      0.00859440
 22aa ab 20     -0.01933140     -0.07074359      0.00007439      0.00859440
 22ba 20 aa      0.00942632      0.06970173      0.03054393      0.03754875
 22ba aa 20     -0.00942632     -0.06970173     -0.03054393      0.03754875
 2200 22 aa     -0.00000061     -0.00569950     -0.05952388     -0.05335029
 2200 aa 22      0.00000061      0.00569950      0.05952388     -0.05335029
 2a2a 20 ba     -0.05897266      0.00365544     -0.00186346     -0.00300039
 2a2a ba 20      0.05897266     -0.00365544      0.00186346     -0.00300039
 20aa 20 22     -0.05420718      0.03904131     -0.00439497     -0.00093221
 20aa 22 20     -0.05420718      0.03904131     -0.00439497      0.00093221
 
 Energy:      -684.82035591   -684.62341216   -684.60057698   -684.58091334
 
 
 CI Coefficients of symmetry 1 (Singlet)
 =======================================
 
 2220 20 20      0.98369865      0.06375768     -0.00000000      0.08412324
 22ba 20 20      0.03937866     -0.69085821     -0.00000000      0.00163717
 22ab 20 20     -0.03937866      0.69085821      0.00000000     -0.00163717
 2200 20 22     -0.07204509     -0.00259244      0.68940687      0.68127152
 2200 22 20     -0.07204509     -0.00259244     -0.68940687      0.68127152
 2020 20 22     -0.04781540     -0.00398790     -0.13023637     -0.13430369
 2020 22 20     -0.04781540     -0.00398790      0.13023637     -0.13430369
 2202 20 20     -0.02552512      0.11310312     -0.00000000     -0.05027599
 2000 22 22      0.00575711      0.00078671      0.00000000     -0.07137725
 
 Energy:      -684.97468913   -684.80244777   -684.66965075   -684.64445835
 


 **********************************************************************************************************************************
 DATASETS  * FILE   NREC   LENGTH (MB)   RECORD NAMES
              1      21      603.53       500      700      610      701      900      950      970     1000      129      960   
                                          VAR     GEOM    BASINP    GEOM    SYMINP    ZMAT    AOBASIS   BASIS     P2S    ABASIS    
                                         1100     1400     1410     1200     1210     1080     1600     1650     1300     1700   
                                           S        T        V       H0       H01     AOSYM     SMH    MOLCAS    ERIS     OPER   
                                         1380   
                                         JKOP   

              2       9       18.38       500      610      700     1000      520     2100     2140      701     2140(1)
                                          VAR    BASINP    GEOM     BASIS   MCVARS     RHF     MCSCF    GEOM     MCSCF   

 PROGRAMS   *        TOTAL     MULTI       INT   RESTART
 CPU TIMES  *        44.16      5.86     38.19      0.01
 REAL TIME  *        46.30 SEC
 DISK USED  *         1.83 GB
 **********************************************************************************************************************************


 PROGRAM * CI (Multireference internally contracted CI)     Authors: H.-J. Werner, P.J. Knowles, 1987


 Convergence thresholds:  THRVAR = 1.00D-08  THRDEN = 1.00D-06

 Number of optimized states: 3  Roots:    1   2   3
 Number of reference states: 3  Roots:    1   2   3

 Program parameters:       NSTATE=  3    NSTATI=  4    NSTATR=  3    NCEPA = -1    NOKOP =  0    ITRDM =  0    ITRANS=  0
                           IDIP  =200    MAXIT =250    MAXITI=250    MAXDAV=  9    MAXVI = 12    NOSING=  0    NOPAIR=  0
                           MXSHRF=  5    IKCPS =  0    IOPTGM=  2    IOPTOR=  0    REFOPT=  1    IAVDEN=  0    IDELCG=  1
                           IREST =  0    NATORB=  0    IPUNRF=  0    ISEP  =  0    OLDDEN=  0    NSTPRI=  1    GPSFLI= -1
                           CLUSTE=  0    CLOSED=  1    ILSTYP=  0    ITRLS =  0    ICCSD =  0    LOCAL =  0    IBASO =  0
                           MP    =  0    ITEDIS=  2    INCDIS=  1    MAXDIS=  6    ITYDIS=  1    BRUECK=  0    IBRSTR=  3
                           INCBRK=  1    TRIPLE=  0    ICCTYP=  2    IHPPD =  0    ICCNEW=  0    I3EXT = -1    IDEB  =  0
                           IDLEIG=  1    IDFTYP=  1    IMP3  =  0    IPROCS=  0    NOINT =  0    NOREF =  1    IMP2G =  0
                           IHINT =  0    IFDIA =  0    ISPARO=  1    JKSYM =  0    CPHF  =  0    MP2D  = -1    DKINT =  0
                           NPKEX =  1    DRVK  =  1    HLSTRA=  1    WIGNER=  1    DIIS_C=  1    MAXIT_= 50    MATEL =  0
                           SPDEG =  1    MEMCPH=  0    DISM  =  1    KDCPMA=  5    IKDCP_=  0    IREDTH=  0    USECS =  0
                           IPROCC=  0    I3SAVE=  1    IKDCP =  1    USECI =  0    OLDPAI=  0    IPROCI=  0    KEEPCL=  1
                           DISCON=  0    SHIFTE=  0    DIISIN=  0    MOLCAS=  0    MEM_PT=  0    RECORD=  0    RS2C  =  0
                           KEXT  = -1    CIPT2 =  0    DECP0S=  0    I4EXT = -1    NATCOR=  0    RIMP2 =  0    DDCI  = -1
                           IPOLAR=  0

 Reference symmetry:                   1   Triplet 
 Number of electrons:                 30
 Maximum number of shells:             5
 Maximum number of spin couplings:    90

 Reference space:      184 conf      360 CSFs
 N elec internal:      728 conf     1512 CSFs
 N-1 el internal:     1016 conf     3696 CSFs
 N-2 el internal:     1091 conf     7140 CSFs

 Number of electrons in valence space:                     10
 Maximum number of open shell orbitals in reference space:  6
 Maximum number of open shell orbitals in internal spaces: 10


 Number of core orbitals:          10 (   6   2   2   0 )
 Number of active  orbitals:        8 (   4   2   2   0 )
 Number of external orbitals:     244 (  86  60  60  38 )

 Molecular orbitals read from record     2140.2  Type=MCSCF/NATURAL (state averaged)

 Valence orbitals related to previous ones by unitary transformation. Operators transformed.


 Number of p-space configurations:  13

 Reference wavefunction optimized for reference space (refopt=1)

 State     Reference Energy 
     1      -684.82035591
     2      -684.62341216
     3      -684.60057698
     4      -684.58091334

 Number of blocks in overlap matrix:     8   Smallest eigenvalue:  0.56D-03
 Number of N-2 electron functions:     192
 Number of N-1 electron functions:    3696

 Number of internal configurations:                  360
 Number of singly external configurations:        226032
 Number of doubly external configurations:       1459440
 Total number of contracted configurations:      1685832
 Total number of uncontracted configurations:   53355776

 Diagonal Coupling coefficients finished.               Storage:  341663 words, CPU-Time:      0.10 seconds.
 Energy denominators for pairs finished in 1 passes.    Storage:  468902 words, CPU-time:      0.02 seconds.

  ITER. STATE  ROOT     SQ.NORM     CORR.ENERGY   TOTAL ENERGY   ENERGY CHANGE       DEN1      VAR(S)    VAR(P)      TIME
    1     1     1     1.00000000     0.00000000  -684.82035591    -0.00000000    -0.24434503  0.50D-01  0.51D-01     0.62
    1     2     2     1.00000000     0.00000000  -684.62341216    -0.00000000    -0.24889689  0.66D-01  0.55D-01     0.62
    1     3     3     1.00000000     0.00000000  -684.60057698     0.00000000    -0.27482750  0.63D-01  0.63D-01     0.62
    2     1     1     1.09905222    -0.24294568  -685.06330159    -0.24294568    -0.00811376  0.21D-02  0.15D-02    17.38
    2     2     2     1.11702131    -0.24487844  -684.86829059    -0.24487844    -0.00956619  0.34D-02  0.18D-02    17.38
    2     3     3     1.11524175    -0.26141837  -684.86199535    -0.26141837    -0.00707087  0.17D-02  0.14D-02    17.38
    3     1     1     1.10430452    -0.25190493  -685.07226083    -0.00895924    -0.00057480  0.11D-03  0.11D-03    33.97
    3     2     2     1.12447059    -0.25521006  -684.87862222    -0.01033163    -0.00096332  0.46D-03  0.17D-03    33.97
    3     3     3     1.12069015    -0.26937200  -684.86994898    -0.00795363    -0.00049446  0.13D-03  0.11D-03    33.97
    4     1     1     1.10737470    -0.25257462  -685.07293053    -0.00066970    -0.00005621  0.15D-04  0.10D-04    50.69
    4     2     2     1.13484698    -0.25641463  -684.87982679    -0.00120457    -0.00017606  0.13D-03  0.27D-04    50.69
    4     3     3     1.12500911    -0.26998620  -684.87056318    -0.00061420    -0.00006253  0.23D-04  0.13D-04    50.69
    5     1     1     1.10804928    -0.25264196  -685.07299787    -0.00006734    -0.00000721  0.19D-05  0.13D-05    67.38
    5     2     2     1.14120457    -0.25666591  -684.88007806    -0.00025127    -0.00005819  0.50D-04  0.79D-05    67.38
    5     3     3     1.12626725    -0.27006978  -684.87064676    -0.00008359    -0.00001297  0.83D-05  0.21D-05    67.38
    6     1     1     1.10807754    -0.25265067  -685.07300658    -0.00000871    -0.00000096  0.23D-06  0.18D-06    84.12
    6     2     2     1.14487165    -0.25675436  -684.88016651    -0.00008845    -0.00002835  0.30D-04  0.34D-05    84.12
    6     3     3     1.12666822    -0.27008781  -684.87066479    -0.00001803    -0.00000434  0.37D-05  0.58D-06    84.12
    7     1     1     1.10812729    -0.25265185  -685.07300776    -0.00000118    -0.00000017  0.60D-07  0.29D-07   100.90
    7     2     2     1.14823648    -0.25679700  -684.88020916    -0.00004265    -0.00001685  0.16D-04  0.18D-05   100.90
    7     3     3     1.12706328    -0.27009415  -684.87067114    -0.00000634    -0.00000209  0.17D-05  0.27D-06   100.90
    8     1     1     1.10815131    -0.25265206  -685.07300796    -0.00000020    -0.00000004  0.99D-08  0.62D-08   117.60
    8     2     2     1.15021179    -0.25681818  -684.88023033    -0.00002117    -0.00000864  0.85D-05  0.80D-06   117.60
    8     3     3     1.12728260    -0.27009686  -684.87067384    -0.00000270    -0.00000097  0.92D-06  0.11D-06   117.60
    9     1     1     1.10815416    -0.25265210  -685.07300800    -0.00000004    -0.00000001  0.18D-08  0.14D-08   134.25
    9     2     2     1.15162620    -0.25682955  -684.88024170    -0.00001137    -0.00000485  0.53D-05  0.45D-06   134.25
    9     3     3     1.12742335    -0.27009818  -684.87067516    -0.00000132    -0.00000054  0.55D-06  0.58D-07   134.25
   10     1     1     1.10815537    -0.25265210  -685.07300801    -0.00000000    -0.00000001  0.12D-08  0.13D-08   147.03
   10     2     2     1.15486587    -0.25683970  -684.88025185    -0.00001015    -0.00000250  0.19D-05  0.25D-06   147.03
   10     3     3     1.12783025    -0.27009960  -684.87067658    -0.00000141    -0.00000023  0.97D-07  0.28D-07   147.03
   11     1     1     1.10815599    -0.25265210  -685.07300801    -0.00000000    -0.00000001  0.11D-08  0.13D-08   159.89
   11     2     2     1.15581482    -0.25684281  -684.88025497    -0.00000312    -0.00000104  0.90D-06  0.11D-06   159.89
   11     3     3     1.12792958    -0.27009985  -684.87067683    -0.00000026    -0.00000004  0.22D-07  0.57D-08   159.89
   12     1     1     1.10815618    -0.25265210  -685.07300801    -0.00000000    -0.00000001  0.11D-08  0.13D-08   172.80
   12     2     2     1.15608412    -0.25684415  -684.88025631    -0.00000134    -0.00000055  0.57D-06  0.50D-07   172.80
   12     3     3     1.12793111    -0.27009990  -684.87067688    -0.00000005    -0.00000001  0.13D-07  0.16D-08   172.80
   13     1     1     1.10815707    -0.25265210  -685.07300801    -0.00000000    -0.00000001  0.12D-08  0.12D-08   185.65
   13     2     2     1.15672201    -0.25684565  -684.88025781    -0.00000150    -0.00000018  0.85D-07  0.18D-07   185.65
   13     3     3     1.12793314    -0.27009994  -684.87067692    -0.00000004    -0.00000001  0.32D-08  0.59D-09   185.65
   14     1     1     1.10815709    -0.25265210  -685.07300801    -0.00000000    -0.00000001  0.12D-08  0.12D-08   194.66
   14     2     2     1.15682683    -0.25684581  -684.88025797    -0.00000016    -0.00000002  0.17D-07  0.19D-08   194.66
   14     3     3     1.12793608    -0.27009994  -684.87067692    -0.00000000    -0.00000000  0.12D-08  0.17D-09   194.66
   15     1     1     1.10815701    -0.25265210  -685.07300801    -0.00000000    -0.00000001  0.12D-08  0.12D-08   203.70
   15     2     2     1.15694327    -0.25684584  -684.88025800    -0.00000003    -0.00000001  0.75D-08  0.11D-08   203.70
   15     3     3     1.12794219    -0.27009994  -684.87067692    -0.00000000    -0.00000000  0.72D-09  0.15D-09   203.70


 =====================================
 Analysis of CPU times by interactions
 =====================================

       I      S      P

 I   0.1%
 S   0.1%   2.0%
 P   0.5%   9.9%  52.2%

 Initialization:   0.3%
 Other:           34.9%

 Total CPU:      203.7 seconds
 =====================================



 gnormi=  0.90239920  gnorms=  0.03965509  gnormp=  0.05794571  gnorm=  1.00000000
 ecorri= -0.22799305  ecorrs= -0.01001916  ecorrp= -0.01463989  ecorr= -0.25265210

 gnormi=  0.86434662  gnorms=  0.07579662  gnormp=  0.05985677  gnorm=  1.00000000
 ecorri= -0.22200384  ecorrs= -0.01947181  ecorrp= -0.01537020  ecorr= -0.25684584

 gnormi=  0.88657026  gnorms=  0.05131201  gnormp=  0.06211772  gnorm=  1.00000000
 ecorri= -0.23946258  ecorrs= -0.01385989  ecorrp= -0.01677747  ecorr= -0.27009994

 Wavefunction saved on  8520.2

 Reference coefficients greater than 0.0500000
 =============================================
 22//2020           0.9399974  -0.0197530  -0.0038798
 2/2/2020           0.0191434   0.8905076   0.1156277
 222020//           0.0000576   0.0836516  -0.6497138
 2220//20          -0.0000575  -0.0836515   0.6497137
 22//\/20           0.0209178   0.1121441   0.0153852
 22//20\/          -0.0209178  -0.1121441  -0.0153852
 2/0/2220           0.0294696  -0.0725244  -0.0069031
 2/0/2022           0.0294696  -0.0725244  -0.0069031
 2//02220           0.0062377  -0.0134665   0.0696429
 2//02022           0.0062377  -0.0134665   0.0696428
 22//20/\           0.0126276   0.0578915   0.0003783
 22///\20          -0.0126276  -0.0578915  -0.0003783
 220022//          -0.0000171  -0.0069489   0.0535737
 2200//22           0.0000171   0.0069488  -0.0535737

 Coefficients of singly external configurations greater than 0.0500000
 =====================================================================

 22/02020  11.1    -0.0070453  -0.1172967  -0.0263234
 22/02020  12.1    -0.0124209  -0.0863479  -0.0307976
 22/02020  16.1    -0.0084568  -0.0671811  -0.0203914

 Coefficients of fixed reference functions:
 ==========================================

 State      Coefficients
 1           0.949278    0.016897    0.004094
 2          -0.021519    0.927677   -0.034002
 3          -0.006324    0.026380    0.940722

 Coefficients of rotated reference functions:
 ============================================

 State      Coefficients
 1           0.949433   -0.002606   -0.000908
 2          -0.002606    0.928537   -0.003948
 3          -0.000908   -0.003948    0.941105


 RESULTS FOR STATE 1.1
 =====================

 Coefficient of reference function:   C(0) = 0.94927792 (fixed)   0.94994694 (relaxed)   0.94943311 (rotated)

 Energy contributions of configuration classes

 CLASS          SQ.NORM        ECORR1        ECORR2
 +++++++++++++++++++++++++++++++++++++++++++++++++++
 Internals    0.00108270   -0.00001223   -0.16780231
 Singles      0.04399165   -0.06480965   -0.06844008
 Pairs        0.06428247   -0.00196336   -0.01640971
 Total        1.10935681   -0.06678523   -0.25265210
 +++++++++++++++++++++++++++++++++++++++++++++++++++


 Reference energy                    -684.82026667
 Nuclear energy                       105.83544218
 Kinetic energy                       691.99507602
 One electron energy                -1152.71537741
 Two electron energy                  361.80692722
 Virial quotient                       -0.98999694
 Correlation energy                    -0.25274134
 !MRCI STATE 1.1 Energy              -685.073008006703

 Properties without orbital relaxation:

 !MRCI STATE 1.1 Dipole moment          0.00000000     0.00000000    -1.42598146
 Dipole moment /Debye                   0.00000000     0.00000000    -3.62448336

 Cluster corrected energies          -685.10064699 (Davidson, fixed reference)
 Cluster corrected energies          -685.10034375 (Davidson, relaxed reference)
 Cluster corrected energies          -685.10064699 (Davidson, rotated reference)

 Cluster corrected energies          -685.09488150 (Pople, fixed reference)
 Cluster corrected energies          -685.09462904 (Pople, relaxed reference)
 Cluster corrected energies          -685.09488150 (Pople, rotated reference)



 RESULTS FOR STATE 2.1
 =====================

 Coefficient of reference function:   C(0) = 0.92767716 (fixed)   0.92970243 (relaxed)   0.92853743 (rotated)

 Energy contributions of configuration classes

 CLASS          SQ.NORM        ECORR1        ECORR2
 +++++++++++++++++++++++++++++++++++++++++++++++++++
 Internals    0.00251090   -0.00000803   -0.17103524
 Singles      0.08791257   -0.06614465   -0.07650052
 Pairs        0.06942477    0.00702881   -0.00931008
 Total        1.15984824   -0.05912386   -0.25684584
 +++++++++++++++++++++++++++++++++++++++++++++++++++


 Reference energy                    -684.62347016
 Nuclear energy                       105.83544218
 Kinetic energy                       692.06098617
 One electron energy                -1151.90965569
 Two electron energy                  361.19395551
 Virial quotient                       -0.98962414
 Correlation energy                    -0.25678784
 !MRCI STATE 2.1 Energy              -684.880257998959

 Properties without orbital relaxation:

 !MRCI STATE 2.1 Dipole moment          0.00000000     0.00000000    -0.57468286
 Dipole moment /Debye                   0.00000000     0.00000000    -1.46069813

 Cluster corrected energies          -684.92130508 (Davidson, fixed reference)
 Cluster corrected energies          -684.92055912 (Davidson, relaxed reference)
 Cluster corrected energies          -684.92130508 (Davidson, rotated reference)

 Cluster corrected energies          -684.91353029 (Pople, fixed reference)
 Cluster corrected energies          -684.91288122 (Pople, relaxed reference)
 Cluster corrected energies          -684.91353029 (Pople, rotated reference)



 RESULTS FOR STATE 3.1
 =====================

 Coefficient of reference function:   C(0) = 0.94072239 (fixed)   0.94157860 (relaxed)   0.94110471 (rotated)

 Energy contributions of configuration classes

 CLASS          SQ.NORM        ECORR1        ECORR2
 +++++++++++++++++++++++++++++++++++++++++++++++++++
 Internals    0.00100734    0.00000197   -0.00033189
 Singles      0.05793529   -0.07618875   -0.08133860
 Pairs        0.07013578   -0.19380855   -0.18842946
 Total        1.12907841   -0.26999533   -0.27009994
 +++++++++++++++++++++++++++++++++++++++++++++++++++


 Reference energy                    -684.60060822
 Nuclear energy                       105.83544218
 Kinetic energy                       692.62343031
 One electron energy                -1154.10523056
 Two electron energy                  363.39911146
 Virial quotient                       -0.98880668
 Correlation energy                    -0.27006871
 !MRCI STATE 3.1 Energy              -684.870676924901

 Properties without orbital relaxation:

 !MRCI STATE 3.1 Dipole moment          0.00000000     0.00000000     1.18877614
 Dipole moment /Debye                   0.00000000     0.00000000     3.02156756

 Cluster corrected energies          -684.90553697 (Davidson, fixed reference)
 Cluster corrected energies          -684.90523011 (Davidson, relaxed reference)
 Cluster corrected energies          -684.90553697 (Davidson, rotated reference)

 Cluster corrected energies          -684.89852668 (Pople, fixed reference)
 Cluster corrected energies          -684.89826660 (Pople, relaxed reference)
 Cluster corrected energies          -684.89852668 (Pople, rotated reference)


 !MRCI trans          <2.1|DMZ|1.1>    -0.612745614599 au =    -1.557444004873 Debye

 !MRCI trans          <3.1|DMZ|1.1>    -0.008357445768 au =    -0.021242508305 Debye

 !MRCI trans          <3.1|DMZ|2.1>    -0.210647935956 au =    -0.535413648302 Debye


 **********************************************************************************************************************************
 DATASETS  * FILE   NREC   LENGTH (MB)   RECORD NAMES
              1      21      603.53       500      700      610      701      900      950      970     1000      129      960   
                                          VAR     GEOM    BASINP    GEOM    SYMINP    ZMAT    AOBASIS   BASIS     P2S    ABASIS    
                                         1100     1400     1410     1200     1210     1080     1600     1650     1300     1700   
                                           S        T        V       H0       H01     AOSYM     SMH    MOLCAS    ERIS     OPER   
                                         1380   
                                         JKOP   

              2      10       58.20       500      610      700     1000      520     2100     2140      701     2140(1)  8520   
                                          VAR    BASINP    GEOM     BASIS   MCVARS     RHF     MCSCF    GEOM     MCSCF    MRCI   

 PROGRAMS   *        TOTAL        CI     MULTI       INT   RESTART
 CPU TIMES  *       248.57    204.41      5.86     38.19      0.01
 REAL TIME  *       257.83 SEC
 DISK USED  *         1.83 GB
 **********************************************************************************************************************************


 PROGRAM * CI (Multireference internally contracted CI)     Authors: H.-J. Werner, P.J. Knowles, 1987


 Convergence thresholds:  THRVAR = 1.00D-08  THRDEN = 1.00D-06

 Number of optimized states: 3  Roots:    1   2   3
 Number of reference states: 3  Roots:    1   2   3

 Program parameters:       NSTATE=  3    NSTATI=  4    NSTATR=  3    NCEPA = -1    NOKOP =  0    ITRDM =  0    ITRANS=  0
                           IDIP  =200    MAXIT =250    MAXITI=250    MAXDAV=  9    MAXVI = 12    NOSING=  0    NOPAIR=  0
                           MXSHRF=  6    IKCPS =  0    IOPTGM=  2    IOPTOR=  0    REFOPT=  1    IAVDEN=  0    IDELCG=  1
                           IREST =  0    NATORB=  0    IPUNRF=  0    ISEP  =  0    OLDDEN=  0    NSTPRI=  1    GPSFLI= -1
                           CLUSTE=  0    CLOSED=  1    ILSTYP=  0    ITRLS =  0    ICCSD =  0    LOCAL =  0    IBASO =  0
                           MP    =  0    ITEDIS=  2    INCDIS=  1    MAXDIS=  6    ITYDIS=  1    BRUECK=  0    IBRSTR=  3
                           INCBRK=  1    TRIPLE=  0    ICCTYP=  2    IHPPD =  0    ICCNEW=  0    I3EXT = -1    IDEB  =  0
                           IDLEIG=  1    IDFTYP=  1    IMP3  =  0    IPROCS=  0    NOINT =  0    NOREF =  1    IMP2G =  0
                           IHINT =  0    IFDIA =  0    ISPARO=  1    JKSYM =  0    CPHF  =  0    MP2D  = -1    DKINT =  0
                           NPKEX =  1    DRVK  =  1    HLSTRA=  1    WIGNER=  1    DIIS_C=  1    MAXIT_= 50    MATEL =  0
                           SPDEG =  1    MEMCPH=  0    DISM  =  1    KDCPMA=  5    IKDCP_=  0    IREDTH=  0    USECS =  0
                           IPROCC=  0    I3SAVE=  1    IKDCP =  1    USECI =  0    OLDPAI=  0    IPROCI=  0    KEEPCL=  1
                           DISCON=  0    SHIFTE=  0    DIISIN=  0    MOLCAS=  0    MEM_PT=  0    RECORD=  0    RS2C  =  0
                           KEXT  = -1    CIPT2 =  0    DECP0S=  0    I4EXT = -1    NATCOR=  0    RIMP2 =  0    DDCI  = -1
                           IPOLAR=  0

 Reference symmetry:                   1   Singlet 
 Number of electrons:                 30
 Maximum number of shells:             6
 Maximum number of spin couplings:    42

 Reference space:      240 conf      328 CSFs
 N elec internal:      784 conf     1176 CSFs
 N-1 el internal:     1016 conf     2352 CSFs
 N-2 el internal:     1107 conf     4116 CSFs

 Number of electrons in valence space:                     10
 Maximum number of open shell orbitals in reference space:  6
 Maximum number of open shell orbitals in internal spaces: 10


 Number of core orbitals:          10 (   6   2   2   0 )
 Number of active  orbitals:        8 (   4   2   2   0 )
 Number of external orbitals:     244 (  86  60  60  38 )

 Molecular orbitals read from record     2140.2  Type=MCSCF/NATURAL (state averaged)

 Coulomb and exchange operators available. No transformation done.


 Number of p-space configurations:   8

 Reference wavefunction optimized for reference space (refopt=1)

 State     Reference Energy 
     1      -684.97468913
     2      -684.80244777
     3      -684.66965075
     4      -684.64445835

 Number of blocks in overlap matrix:     8   Smallest eigenvalue:  0.27D-04
 Number of N-2 electron functions:     192
 Number of N-1 electron functions:    2352

 Number of internal configurations:                  328
 Number of singly external configurations:        144816
 Number of doubly external configurations:       1459440
 Total number of contracted configurations:      1604584
 Total number of uncontracted configurations:   30813616

 Diagonal Coupling coefficients finished.               Storage:  228761 words, CPU-Time:      0.08 seconds.
 Energy denominators for pairs finished in 1 passes.    Storage:  376976 words, CPU-time:      0.02 seconds.

  ITER. STATE  ROOT     SQ.NORM     CORR.ENERGY   TOTAL ENERGY   ENERGY CHANGE       DEN1      VAR(S)    VAR(P)      TIME
    1     1     1     1.00000000     0.00000000  -684.97468913     0.00000000    -0.27938533  0.58D-01  0.60D-01     0.24
    1     2     2     1.00000000     0.00000000  -684.80244777    -0.00000000    -0.25097885  0.51D-01  0.53D-01     0.24
    1     3     3     1.00000000     0.00000000  -684.66965075    -0.00000000    -0.29945916  0.10D+00  0.68D-01     0.24
    2     1     1     1.10339105    -0.26146948  -685.23615861    -0.26146948    -0.01150249  0.33D-02  0.20D-02    16.14
    2     2     2     1.09920483    -0.24488315  -685.04733092    -0.24488315    -0.00804629  0.23D-02  0.15D-02    16.14
    2     3     3     1.13867599    -0.27022449  -684.93987524    -0.27022449    -0.01330030  0.43D-02  0.27D-02    16.14
    3     1     1     1.10730372    -0.27347941  -685.24816854    -0.01200993    -0.00079360  0.11D-03  0.17D-03    32.20
    3     2     2     1.10293203    -0.25357468  -685.05602245    -0.00869153    -0.00061284  0.12D-03  0.13D-03    32.20
    3     3     3     1.14344317    -0.28379019  -684.95344094    -0.01356570    -0.00136719  0.71D-03  0.26D-03    32.20
    4     1     1     1.11061445    -0.27448692  -685.24917605    -0.00100751    -0.00009416  0.12D-04  0.21D-04    48.34
    4     2     2     1.10611072    -0.25430561  -685.05675338    -0.00073093    -0.00007907  0.18D-04  0.18D-04    48.34
    4     3     3     1.15900339    -0.28565701  -684.95530776    -0.00186682    -0.00037980  0.25D-03  0.60D-04    48.34
    5     1     1     1.11134465    -0.27461237  -685.24930150    -0.00012546    -0.00001511  0.22D-05  0.31D-05    64.54
    5     2     2     1.10672517    -0.25441044  -685.05685821    -0.00010483    -0.00001702  0.39D-05  0.35D-05    64.54
    5     3     3     1.17486471    -0.28629679  -684.95594754    -0.00063978    -0.00018286  0.85D-04  0.30D-04    64.54
    6     1     1     1.11133491    -0.27463118  -685.24932031    -0.00001881    -0.00000235  0.31D-06  0.50D-06    80.64
    6     2     2     1.10662420    -0.25443292  -685.05688069    -0.00002248    -0.00000395  0.67D-06  0.88D-06    80.64
    6     3     3     1.18145193    -0.28655405  -684.95620480    -0.00025726    -0.00007594  0.52D-04  0.11D-04    80.64
    7     1     1     1.11138666    -0.27463409  -685.24932322    -0.00000291    -0.00000045  0.74D-07  0.93D-07    96.99
    7     2     2     1.10669212    -0.25443788  -685.05688565    -0.00000496    -0.00000101  0.24D-06  0.22D-06    96.99
    7     3     3     1.18638687    -0.28664963  -684.95630038    -0.00009558    -0.00003316  0.20D-04  0.46D-05    96.99
    8     1     1     1.11141349    -0.27463464  -685.24932377    -0.00000055    -0.00000009  0.13D-07  0.19D-07   113.25
    8     2     2     1.10672114    -0.25443911  -685.05688688    -0.00000122    -0.00000029  0.58D-07  0.63D-07   113.25
    8     3     3     1.19061237    -0.28669476  -684.95634551    -0.00004513    -0.00001856  0.10D-04  0.25D-05   113.25
    9     1     1     1.11142096    -0.27463475  -685.24932388    -0.00000011    -0.00000002  0.30D-08  0.41D-08   129.65
    9     2     2     1.10672283    -0.25443946  -685.05688723    -0.00000036    -0.00000009  0.17D-07  0.20D-07   129.65
    9     3     3     1.19337827    -0.28671899  -684.95636974    -0.00002422    -0.00000938  0.62D-05  0.12D-05   129.65
   10     1     1     1.11142095    -0.27463475  -685.24932388    -0.00000000    -0.00000002  0.30D-08  0.39D-08   142.21
   10     2     2     1.10673099    -0.25443957  -685.05688734    -0.00000011    -0.00000003  0.60D-08  0.62D-08   142.21
   10     3     3     1.19967052    -0.28673998  -684.95639073    -0.00002099    -0.00000233  0.71D-06  0.30D-06   142.21
   11     1     1     1.11142095    -0.27463475  -685.24932388    -0.00000000    -0.00000002  0.30D-08  0.39D-08   154.74
   11     2     2     1.10673667    -0.25443960  -685.05688737    -0.00000003    -0.00000001  0.18D-08  0.20D-08   154.74
   11     3     3     1.20063873    -0.28674222  -684.95639297    -0.00000224    -0.00000017  0.43D-07  0.39D-07   154.74
   12     1     1     1.11142095    -0.27463475  -685.24932388    -0.00000000    -0.00000002  0.30D-08  0.39D-08   163.44
   12     2     2     1.10673667    -0.25443960  -685.05688737    -0.00000000    -0.00000001  0.18D-08  0.20D-08   163.44
   12     3     3     1.20064359    -0.28674243  -684.95639318    -0.00000022    -0.00000003  0.53D-08  0.97D-08   163.44
   13     1     1     1.11142095    -0.27463475  -685.24932388     0.00000000    -0.00000002  0.30D-08  0.39D-08   172.09
   13     2     2     1.10673667    -0.25443960  -685.05688737    -0.00000000    -0.00000001  0.18D-08  0.20D-08   172.09
   13     3     3     1.20066789    -0.28674250  -684.95639325    -0.00000006    -0.00000001  0.34D-08  0.30D-08   172.09


 =====================================
 Analysis of CPU times by interactions
 =====================================

       I      S      P

 I   0.1%
 S   0.1%   1.4%
 P   0.5%   6.7%  54.1%

 Initialization:   0.1%
 Other:           37.1%

 Total CPU:      172.1 seconds
 =====================================



 gnormi=  0.89974910  gnorms=  0.03404380  gnormp=  0.06620710  gnorm=  1.00000000
 ecorri= -0.24710237  ecorrs= -0.00935022  ecorrp= -0.01818216  ecorr= -0.27463475

 gnormi=  0.90355730  gnorms=  0.03711547  gnormp=  0.05932723  gnorm=  1.00000000
 ecorri= -0.22990076  ecorrs= -0.00944273  ecorrp= -0.01509611  ecorr= -0.25443960

 gnormi=  0.83286978  gnorms=  0.10339249  gnormp=  0.06373773  gnorm=  1.00000000
 ecorri= -0.23881916  ecorrs= -0.02965008  ecorrp= -0.01827325  ecorr= -0.28674250

 Wavefunction saved on  7520.2

 Reference coefficients greater than 0.0500000
 =============================================
 22202020           0.9365881   0.0205142  -0.0000000
 22/\2020          -0.0171837   0.9323334  -0.0000000
 22002220          -0.0672227  -0.0053459   0.6335140
 22002022          -0.0672228  -0.0053460  -0.6335140
 22022020          -0.0211159   0.1161616  -0.0000001
 20202022          -0.0430754  -0.0013160   0.1023322
 20202220          -0.0430754  -0.0013160  -0.1023317
 2/2\20/\          -0.0209029   0.0591188  -0.0005646
 2/2\/\20           0.0209029  -0.0591188  -0.0005647

 Coefficients of singly external configurations greater than 0.0500000
 =====================================================================

 22\02020  14.1    -0.0000001  -0.0000001   0.1768775
 22\02020  17.1    -0.0000000  -0.0000000   0.1275501
 22\02020  19.1    -0.0000001   0.0000001  -0.0901853

 Coefficients of fixed reference functions:
 ==========================================

 State      Coefficients
 1           0.947576    0.037244    0.000000
 2          -0.039154    0.949209    0.000000
 3          -0.000000   -0.000000    0.911469

 Coefficients of rotated reference functions:
 ============================================

 State      Coefficients
 1           0.948307   -0.000921    0.000000
 2          -0.000921    0.950016    0.000000
 3           0.000000    0.000000    0.911469


 RESULTS FOR STATE 1.1
 =====================

 Coefficient of reference function:   C(0) = 0.94757560 (fixed)   0.94855105 (relaxed)   0.94830681 (rotated)

 Energy contributions of configuration classes

 CLASS          SQ.NORM        ECORR1        ECORR2
 +++++++++++++++++++++++++++++++++++++++++++++++++++
 Internals    0.00051519   -0.00000673   -0.19196959
 Singles      0.03785648   -0.06130725   -0.06448295
 Pairs        0.07362187   -0.00000005   -0.01818221
 Total        1.11199354   -0.06131402   -0.27463475
 +++++++++++++++++++++++++++++++++++++++++++++++++++


 Reference energy                    -684.97441016
 Nuclear energy                       105.83544218
 Kinetic energy                       692.83184554
 One electron energy                -1157.20227322
 Two electron energy                  366.11750716
 Virial quotient                       -0.98905575
 Correlation energy                    -0.27491372
 !MRCI STATE 1.1 Energy              -685.249323881293

 Properties without orbital relaxation:

 !MRCI STATE 1.1 Dipole moment          0.00000000     0.00000000     0.34194586
 Dipole moment /Debye                   0.00000000     0.00000000     0.86913970

 Cluster corrected energies          -685.28011244 (Davidson, fixed reference)
 Cluster corrected energies          -685.27995503 (Davidson, relaxed reference)
 Cluster corrected energies          -685.28011244 (Davidson, rotated reference)

 Cluster corrected energies          -685.27566844 (Pople, fixed reference)
 Cluster corrected energies          -685.27552475 (Pople, relaxed reference)
 Cluster corrected energies          -685.27566844 (Pople, rotated reference)



 RESULTS FOR STATE 2.1
 =====================

 Coefficient of reference function:   C(0) = 0.94920931 (fixed)   0.95055631 (relaxed)   0.95001605 (rotated)

 Energy contributions of configuration classes

 CLASS          SQ.NORM        ECORR1        ECORR2
 +++++++++++++++++++++++++++++++++++++++++++++++++++
 Internals    0.00113770   -0.00000672   -0.17239320
 Singles      0.04112379   -0.06371812   -0.06695028
 Pairs        0.06573432   -0.00000001   -0.01509612
 Total        1.10799580   -0.06372485   -0.25443960
 +++++++++++++++++++++++++++++++++++++++++++++++++++


 Reference energy                    -684.80272674
 Nuclear energy                       105.83544218
 Kinetic energy                       691.99514235
 One electron energy                -1152.70827896
 Two electron energy                  361.81594940
 Virial quotient                       -0.98997355
 Correlation energy                    -0.25416063
 !MRCI STATE 2.1 Energy              -685.056887373700

 Properties without orbital relaxation:

 !MRCI STATE 2.1 Dipole moment          0.00000000     0.00000000    -1.40832252
 Dipole moment /Debye                   0.00000000     0.00000000    -3.57959880

 Cluster corrected energies          -685.08433565 (Davidson, fixed reference)
 Cluster corrected energies          -685.08401563 (Davidson, relaxed reference)
 Cluster corrected energies          -685.08433565 (Davidson, rotated reference)

 Cluster corrected energies          -685.08031756 (Pople, fixed reference)
 Cluster corrected energies          -685.08002691 (Pople, relaxed reference)
 Cluster corrected energies          -685.08031756 (Pople, rotated reference)



 RESULTS FOR STATE 3.1
 =====================

 Coefficient of reference function:   C(0) = 0.91146932 (fixed)   0.91261699 (relaxed)   0.91146932 (rotated)

 Energy contributions of configuration classes

 CLASS          SQ.NORM        ECORR1        ECORR2
 +++++++++++++++++++++++++++++++++++++++++++++++++++
 Internals    0.00251988   -0.00000000   -0.00060028
 Singles      0.12445287   -0.08311743   -0.09870207
 Pairs        0.07672068   -0.20362507   -0.18744014
 Total        1.20369343   -0.28674250   -0.28674250
 +++++++++++++++++++++++++++++++++++++++++++++++++++


 Reference energy                    -684.66965075
 Nuclear energy                       105.83544218
 Kinetic energy                       691.63536329
 One electron energy                -1154.46855719
 Two electron energy                  363.67672176
 Virial quotient                       -0.99034322
 Correlation energy                    -0.28674250
 !MRCI STATE 3.1 Energy              -684.956393245942

 Properties without orbital relaxation:

 !MRCI STATE 3.1 Dipole moment          0.00000000     0.00000000     0.59285285
 Dipole moment /Debye                   0.00000000     0.00000000     1.50688165

 Cluster corrected energies          -685.01480081 (Davidson, fixed reference)
 Cluster corrected energies          -685.01393326 (Davidson, relaxed reference)
 Cluster corrected energies          -685.01480081 (Davidson, rotated reference)

 Cluster corrected energies          -685.00917418 (Pople, fixed reference)
 Cluster corrected energies          -685.00829750 (Pople, relaxed reference)
 Cluster corrected energies          -685.00917418 (Pople, rotated reference)


 !MRCI trans          <2.1|DMZ|1.1>     0.563824878185 au =     1.433099895626 Debye

 !MRCI trans          <3.1|DMZ|1.1>     0.000000129714 au =     0.000000329701 Debye

 !MRCI trans          <3.1|DMZ|2.1>    -0.000000504734 au =    -0.000001282906 Debye


 **********************************************************************************************************************************
 DATASETS  * FILE   NREC   LENGTH (MB)   RECORD NAMES
              1      21      603.53       500      700      610      701      900      950      970     1000      129      960   
                                          VAR     GEOM    BASINP    GEOM    SYMINP    ZMAT    AOBASIS   BASIS     P2S    ABASIS    
                                         1100     1400     1410     1200     1210     1080     1600     1650     1300     1700   
                                           S        T        V       H0       H01     AOSYM     SMH    MOLCAS    ERIS     OPER   
                                         1380   
                                         JKOP   

              2      11      100.85       500      610      700     1000      520     2100     2140      701     2140(1)  8520   
                                          VAR    BASINP    GEOM     BASIS   MCVARS     RHF     MCSCF    GEOM     MCSCF    MRCI   
                                         7520   
                                         MRCI   

 PROGRAMS   *        TOTAL        CI        CI     MULTI       INT   RESTART
 CPU TIMES  *       421.29    172.72    204.41      5.86     38.19      0.01
 REAL TIME  *       436.60 SEC
 DISK USED  *         1.83 GB
 **********************************************************************************************************************************


 PROGRAM * CI (Multireference internally contracted CI)     Authors: H.-J. Werner, P.J. Knowles, 1987


   ******************************
   *** Spin-orbit calculation ***
   ******************************


   Spin-orbit matrix elements
   ==========================

  
 Preparing effective Fock matrices
  
 Total X Y Z Fock matrices evaluated:     0    0    0
  
 ? Error
 ? Unknown operator:LS
 ? The problem occurs in Prpdrv

 GLOBAL ERROR fehler on processor   0                                         
