
 Working directory              : /tmp/molpro/molpro.vrKu8DBGBs/
 Global scratch directory       : /tmp/molpro/molpro.vrKu8DBGBs/
 Wavefunction directory         : /home/molpro/wfu/
 Main file repository           : /tmp/molpro/molpro.vrKu8DBGBs/

 id        : gskim

 Nodes                nprocs
 localhost.localdomain    1
 GA implementation: MPI file
 GA implementation (serial work in mppx): MPI file

 Using customized tuning parameters: mindgm=1; mindgv=20; mindgc=4; mindgr=1; noblas=0; minvec=7
 default implementation of scratch files=df  


 Variables initialized (1009), CPU time= 0.00 sec
 ***,The CI for SiS   1sig+  excited states
 file,2,sis-1sigp3-135b.wfu
 memory,1000,M
 geometry={angstrom;
 Si
 S,Si,r(i)}
 basis=av5z
 r=[1.35,1.345,1.34,1.335,1.33,1.325,1.32,1.315,1.31,1.305,1.30,1.295,1.29,1.285,1.28,1.275,1.27,1.265,1.26,1.255,1.25,1.245,1.24,1.235,1.23,1.225,1.22,1.215,1.21,1.205,1.20,1.195,1.19,1.185,1.18,1.175,1.17,1.165,1.16,1.155,1.15,1.145,1.14,1.135,1.13,1.125,1.12,1.115,1.11,1.105,1.10]
 do i=1,#r
 int;
 
 
 Text,CASSCF, state averaged orbitals for 1sig+ state
 
 {multi;occ,10,4,4;close,6,2,2;start,2130.2;orbital,2140.2;natorb,,ci;wf,30,1,0;state,4;maxiter,40;}
 {ci;occ,10,4,4;core,6,2,2;wf,30,1,0;state,3;maxiter,250;option,maxiti=250;option,nstati=4;orbital,ignore_error=1;}
 
 
 e1(i)=energy(1)
 e2(i)=energy(2)
 e3(i)=energy(3),
 
 
 enddo
 
 table,r,e1,e2,e3
 
 
 Commands initialized (810), CPU time= 0.01 sec, 661 directives.
 Default parameters read. Elapsed time= 0.05 sec

 Checking input...
 Passed
1


                                         ***  PROGRAM SYSTEM MOLPRO  ***
                                       Copyright, TTI GmbH Stuttgart, 2015
                                    Version 2021.2 linked Jul 16 2021 07:37:36


 **********************************************************************************************************************************
 LABEL *   The CI for SiS   1sig+  excited states                                        
  64 bit serial version                                                                  DATE: 23-Oct-24          TIME: 23:32:24  
 **********************************************************************************************************************************

 SHA1:             dade016a989826d9d859d6207854b99675d53db3
 **********************************************************************************************************************************

 Memory per process:      1000 MW
 Total memory per node:   1000 MW

 GA preallocation disabled
 GA check disabled

 Variable memory set to 1000.0 MW



 Permanent file  2  sis-1sigp3-135b.wfu              assigned.  Implementation=df    Size= 17.56 MB


 PROGRAM * RESTART 


 Reading variables from file 2

 _FNUC           =      0.00000000
 _BASIS          =    AV5Z
 _NELEC          =     30.00000000
 _PROGRAM        =    CI
 _DMX(2:3)       =      0.00000000     0.00000000
 _DMY(2:3)       =      0.00000000     0.00000000
 _DMZ(1:3)       =      0.15902381    -1.91175968     1.05768906
 _DMX_SCF        =      0.00000000
 _DMY_SCF        =      0.00000000
 _DMZ_SCF        =      0.24575051
 _HOMO           =      9.10000000
 _EHOMO          =     -0.34177146
 _LUMO           =     10.10000000
 _ELUMO          =      0.03260021
 _ENERGD(1:3)    =   -686.30776984  -686.06590597  -685.99825568
 _ENERGD0(1:3)   =   -686.30776984  -686.06590597  -685.99825568
 _ENERGD1(1:3)   =   -686.30806742  -686.06648051  -685.99865663
 _ENERGD2(1:3)   =   -686.30806742  -686.06648051  -685.99865663
 _ENERGD3(1:3)   =   -686.30776984  -686.06590597  -685.99825568
 _ENERGD4(1:3)   =   -686.30806742  -686.06648051  -685.99865663
 _ENERGP(1:3)    =   -686.30351588  -686.06192167  -685.99344127
 _ENERGP0(1:3)   =   -686.30351588  -686.06192167  -685.99344127
 _ENERGP1(1:3)   =   -686.30378703  -686.06244528  -685.99381718
 _ENERGP2(1:3)   =   -686.30378703  -686.06244528  -685.99381718
 _ENERGP3(1:3)   =   -686.30351588  -686.06192167  -685.99344127
 _ENERGP4(1:3)   =   -686.30378703  -686.06244528  -685.99381718
 _ENERGR(1:3)    =   -686.01207685  -685.78812830  -685.69211203
 _ENERGRR(1:3)   =   -686.01194710  -685.78825805  -685.69211203
 _ENERGY(1:3)    =   -686.27854353  -686.03857466  -685.96201844
 _ENERGY_METHOD  =    CI
 _ENERGY_BASIS   =    aug-cc-pV5Z
 _ENERGY_AVRG    =   -685.78433518
 _ENUC           =     87.80421870
 _IPROC_MPP      =      0.00000000
 _IPROC_MPPX     =      0.00000000
 _ORBITAL        =   2140.20000000
 _ROOT(1:3)      =      1.00000000     2.00000000     3.00000000
 _STATUS         =      1.00000000
 _TROV           =     -0.00000000
 _LASTORB        =    MCSCF
 _OUTPUT         =    /home/molpro/SiS-3oct2024/dir-3/sis135-1sigp3mc.out
 _PGROUP         =    C2v 
 _TIME           =    22:55:44
 _C0(1:3)        =      0.90120332     0.90156126     0.88163322
 _C0R(1:3)       =      0.90029768     0.89969949     0.88048008
 _DMX_CC(1:4)    =     -0.00000000    -0.00000000    -0.00000000    -0.00000000
 _DMY_CC(1:4)    =     -0.00000000    -0.00000000    -0.00000000    -0.00000000
 _DMZ_CC(1:4)    =      1.65859504     1.65859504     1.65859504     1.65859504
 _DMX_NUC(1:4)   =      0.00000000     0.00000000     0.00000000     0.00000000
 _DMY_NUC(1:4)   =      0.00000000     0.00000000     0.00000000     0.00000000
 _DMZ_NUC(1:4)   =      0.02239564     0.02239564     0.02239564     0.02239564
 _SYM_CATION     =      1.00000000
 R               =      1.35000000
 _TRDMX(1:3)     =      0.00000000    -0.00000000     0.00000000
 _TRDMY(1:3)     =      0.00000000    -0.00000000     0.00000000
 _TRDMZ(1:3)     =      0.44558507     0.00000184    -0.00000035

 Geometry written to block  1 of record 700


 **********************************************************************************************************************************
 DATASETS  * FILE   NREC   LENGTH (MB)   RECORD NAMES
              2       7       17.56       500      610      700     1000      520     2100     2140   
                                          VAR    BASINP    GEOM     BASIS   MCVARS     RHF     MCSCF   

 PROGRAMS   *        TOTAL   RESTART
 CPU TIMES  *         0.10      0.01
 REAL TIME  *         0.12 SEC
 DISK USED  *        29.03 MB
 **********************************************************************************************************************************
 SETTING BASIS          =    AV5Z
 SETTING R(1)           =         1.35000000                                  
 SETTING R(2)           =         1.34500000                                  
 SETTING R(3)           =         1.34000000                                  
 SETTING R(4)           =         1.33500000                                  
 SETTING R(5)           =         1.33000000                                  
 SETTING R(6)           =         1.32500000                                  
 SETTING R(7)           =         1.32000000                                  
 SETTING R(8)           =         1.31500000                                  
 SETTING R(9)           =         1.31000000                                  
 SETTING R(10)          =         1.30500000                                  
 SETTING R(11)          =         1.30000000                                  
 SETTING R(12)          =         1.29500000                                  
 SETTING R(13)          =         1.29000000                                  
 SETTING R(14)          =         1.28500000                                  
 SETTING R(15)          =         1.28000000                                  
 SETTING R(16)          =         1.27500000                                  
 SETTING R(17)          =         1.27000000                                  
 SETTING R(18)          =         1.26500000                                  
 SETTING R(19)          =         1.26000000                                  
 SETTING R(20)          =         1.25500000                                  
 SETTING R(21)          =         1.25000000                                  
 SETTING R(22)          =         1.24500000                                  
 SETTING R(23)          =         1.24000000                                  
 SETTING R(24)          =         1.23500000                                  
 SETTING R(25)          =         1.23000000                                  
 SETTING R(26)          =         1.22500000                                  
 SETTING R(27)          =         1.22000000                                  
 SETTING R(28)          =         1.21500000                                  
 SETTING R(29)          =         1.21000000                                  
 SETTING R(30)          =         1.20500000                                  
 SETTING R(31)          =         1.20000000                                  
 SETTING R(32)          =         1.19500000                                  
 SETTING R(33)          =         1.19000000                                  
 SETTING R(34)          =         1.18500000                                  
 SETTING R(35)          =         1.18000000                                  
 SETTING R(36)          =         1.17500000                                  
 SETTING R(37)          =         1.17000000                                  
 SETTING R(38)          =         1.16500000                                  
 SETTING R(39)          =         1.16000000                                  
 SETTING R(40)          =         1.15500000                                  
 SETTING R(41)          =         1.15000000                                  
 SETTING R(42)          =         1.14500000                                  
 SETTING R(43)          =         1.14000000                                  
 SETTING R(44)          =         1.13500000                                  
 SETTING R(45)          =         1.13000000                                  
 SETTING R(46)          =         1.12500000                                  
 SETTING R(47)          =         1.12000000                                  
 SETTING R(48)          =         1.11500000                                  
 SETTING R(49)          =         1.11000000                                  
 SETTING R(50)          =         1.10500000                                  
 SETTING R(51)          =         1.10000000                                  

 DO I                   =         1.00000000   


 Using spherical harmonics

 Library entry SI     S aug-cc-pV5Z          selected for orbital group  1
 Library entry SI     P aug-cc-pV5Z          selected for orbital group  1
 Library entry SI     D aug-cc-pV5Z          selected for orbital group  1
 Library entry SI     F aug-cc-pV5Z          selected for orbital group  1
 Library entry SI     G aug-cc-pV5Z          selected for orbital group  1
 Library entry SI     H aug-cc-pV5Z          selected for orbital group  1
 Library entry S      S aug-cc-pV5Z          selected for orbital group  2
 Library entry S      P aug-cc-pV5Z          selected for orbital group  2
 Library entry S      D aug-cc-pV5Z          selected for orbital group  2
 Library entry S      F aug-cc-pV5Z          selected for orbital group  2
 Library entry S      G aug-cc-pV5Z          selected for orbital group  2
 Library entry S      H aug-cc-pV5Z          selected for orbital group  2


 PROGRAM * SEWARD (Integral evaluation for generally contracted gaussian basis sets)     Author: Roland Lindh, 1990

 Geometry written to block  1 of record 701

 Orientation using atomic masses  
 Molecule type: Linear
 Symmetry elements: X,Y
 Rotational constants:      18.5228203     18.5228203      0.0000000 GHz  (calculated with average atomic masses)

 Point group  C2v 



 ATOMIC COORDINATES

 NR  ATOM    CHARGE       X              Y              Z

   1  SI     14.00    0.000000000    0.000000000   -1.359856288
   2  S      16.00    0.000000000    0.000000000    1.191273980

 Bond lengths in Bohr (Angstrom)

 1-2  2.551130268
     ( 1.350000000)

 NUCLEAR CHARGE:                   30
 NUMBER OF PRIMITIVE AOS:         434
 NUMBER OF SYMMETRY AOS:          324
 NUMBER OF CONTRACTIONS:          262   (   96A1  +   64B1  +   64B2  +   38A2  )
 NUMBER OF INNER CORE ORBITALS:     2   (    2A1  +    0B1  +    0B2  +    0A2  )
 NUMBER OF OUTER CORE ORBITALS:     8   (    4A1  +    2B1  +    2B2  +    0A2  )
 NUMBER OF VALENCE ORBITALS:        8   (    4A1  +    2B1  +    2B2  +    0A2  )


 NUCLEAR REPULSION ENERGY   87.80421870

 EXTRA SYMMETRY OF AOS IN SYMMETRY 1:   1 1 1 1 1 1 1 1 1 1   1 1 1 1 1 1 2 1 2 1   2 1 2 1 2 1 2 1 2 1   2 1 2 1 3 2 1 3 2 1
                                        3 2 2 3 1 2 3 1 1 1   1 1 1 1 1 1 1 1 1 1   1 1 1 1 2 1 2 1 2 1   2 1 2 1 2 1 2 1 2 1
                                        2 1 3 2 1 3 2 1 3 2   2 3 1 2 3 1
 EXTRA SYMMETRY OF AOS IN SYMMETRY 2:   1 1 1 1 1 1 1 1 1 1   1 1 1 2 1 2 1 2 1 2   1 2 1 2 1 2 1 2 3 1   2 3 1 1 1 1 1 1 1 1
                                        1 1 1 1 1 2 1 2 1 2   1 2 1 2 1 2 1 2 1 2   3 1 2 3
 EXTRA SYMMETRY OF AOS IN SYMMETRY 3:   1 1 1 1 1 1 1 1 1 1   1 1 1 2 1 2 1 2 1 2   1 2 1 2 1 2 1 2 3 1   2 3 1 1 1 1 1 1 1 1
                                        1 1 1 1 1 2 1 2 1 2   1 2 1 2 1 2 1 2 1 2   3 1 2 3
 EXTRA SYMMETRY OF AOS IN SYMMETRY 4:   1 1 1 1 1 1 1 1 1 1   2 1 2 1 2 2 1 2 1 1   1 1 1 1 1 1 1 1 1 2   1 2 1 2 2 1 2 1

 Eigenvalues of metric

         1 0.458E-05 0.525E-05 0.892E-05 0.145E-04 0.172E-04 0.623E-04 0.778E-04 0.222E-03
         2 0.751E-05 0.818E-05 0.878E-04 0.478E-03 0.736E-03 0.998E-03 0.395E-02 0.649E-02
         3 0.751E-05 0.818E-05 0.878E-04 0.478E-03 0.736E-03 0.998E-03 0.395E-02 0.649E-02
         4 0.418E-03 0.282E-02 0.104E-01 0.121E-01 0.329E-01 0.420E-01 0.597E-01 0.804E-01


 Contracted 2-electron integrals neglected if value below      1.0D-12
 AO integral compression algorithm  1   Integral accuracy      1.0D-12

     675.283 MB (compressed) written to integral file ( 46.6%)


 NUMBER OF SORTED TWO-ELECTRON INTEGRALS:  150955559.     BUFFER LENGTH:  32768
 NUMBER OF SEGMENTS:  10  SEGMENT LENGTH:   15998976      RECORD LENGTH: 524288

 Memory used in sort:      16.56 MW

 SORT1 READ   181316810. AND WROTE   100603914. INTEGRALS IN    293 RECORDS. CPU TIME:     2.02 SEC, REAL TIME:     2.51 SEC
 SORT2 READ   100603914. AND WROTE   150955559. INTEGRALS IN   2576 RECORDS. CPU TIME:     1.52 SEC, REAL TIME:     1.82 SEC

 FILE SIZES:   FILE 1:   707.0 MBYTE,  FILE 4:  1229.0 MBYTE,   TOTAL:   1935.9 MBYTE

 OPERATOR DM      FOR CENTER  0  COORDINATES:    0.000000    0.000000    0.000000


 **********************************************************************************************************************************
 DATASETS  * FILE   NREC   LENGTH (MB)   RECORD NAMES
              1      20      557.25       500      700      610      701      900      950      970     1000      129      960   
                                          VAR     GEOM    BASINP    GEOM    SYMINP    ZMAT    AOBASIS   BASIS     P2S    ABASIS    
                                         1100     1400     1410     1200     1210     1080     1600     1650     1300     1700   
                                           S        T        V       H0       H01     AOSYM     SMH    MOLCAS    ERIS     OPER   

              2       8       18.16       500      610      700     1000      520     2100     2140      701   
                                          VAR    BASINP    GEOM     BASIS   MCVARS     RHF     MCSCF    GEOM   

 PROGRAMS   *        TOTAL       INT   RESTART
 CPU TIMES  *        35.75     35.65      0.01
 REAL TIME  *        37.07 SEC
 DISK USED  *         1.82 GB
 **********************************************************************************************************************************

 PROGRAM * MULTI (Direct Multiconfiguration SCF)       Authors: P.J. Knowles, H.-J. Werner (1984)
                                                                D.A. Kreplin, P.J. Knowles, H.-J. Werner (2019)

 Number of closed-shell orbitals:  10 (   6   2   2   0 )
 Number of active  orbitals:        8 (   4   2   2   0 )
 Number of external orbitals:     244 (  86  60  60  38 )

 State symmetry 1

 Number of active electrons:  10    Spin symmetry=Singlet   Space symmetry=1
 Number of states:             4
 Number of CSFs:             328   (792 determinants, 3136 intermediate states)

 Molecular orbitals read from record     2140.2  Type=MCSCF/NATURAL (state averaged)

 EXTRA SYMMETRY OF MOS IN SYMMETRY 1:   1 1 1 1 1 1 1 1 1 1   1 1 1 2 1 1 2 1 2 1   1 2 1 1 1 2 1 2 3 1   1 2 1 2 1 2 1 3 1 2
                                        1 2 1 1 2 1 3 2 1 2   3 1 2 1 1 1 3 2 2 1   2 1 3 1 2 1 1 2 1 2   3 3 2 1 1 1 2 1 2 1
                                        3 1 3 2 2 1 1 2 1 1   2 1 1 1 1 1
 EXTRA SYMMETRY OF MOS IN SYMMETRY 2:   1 1 1 1 1 1 1 1 2 1   1 1 1 2 1 1 2 1 2 1   1 1 2 1 2 1 1 2 3 1   2 1 1 2 1 2 1 3 1 2
                                        1 1 2 2 1 1 3 2 1 1   2 1 2 1 1 3 2 1 2 1   1 1 1 1
 EXTRA SYMMETRY OF MOS IN SYMMETRY 3:   1 1 1 1 1 1 1 1 2 1   1 1 1 2 1 1 2 1 2 1   1 1 2 1 2 1 1 2 3 1   2 1 1 2 1 2 1 3 1 2
                                        1 1 2 2 1 1 3 2 1 1   2 1 2 1 1 3 2 1 2 1   1 1 1 1
 EXTRA SYMMETRY OF MOS IN SYMMETRY 4:   1 1 1 1 1 1 2 1 1 1   2 1 1 1 2 1 1 2 1 2   1 1 1 2 1 1 1 2 2 1   1 1 2 2 1 1 1 1

 Wavefunction dump at record             2140.2

 Convergence thresholds  0.10E-04 (gradient)  0.10E-05 (energy)

 Weight factors for state symmetry  1:    0.25000   0.25000   0.25000   0.25000
 
 Number of orbital rotations:  1372  ( 32 closed/active, 756 closed/virtual, 0 active/active, 584 active/virtual )
 Total number of variables:    4540
 
  Second-order MCSCF: L-BFGS accelerated
 
 ITER  MIC  NCI  NEG     ENERGY(VAR)    ENERGY(PROJ) ENERGY CHANGE       GRAD(0)  GRAD(ORB)   GRAD(CI)      STEP      TIME
   1   10   21    0   -685.78433518    -685.78433518   -0.00000000    0.00001104 0.00000000 0.00000002  0.21E-07      1.41

 CONVERGENCE REACHED!  Final gradient:    0.00000001 ( 0.88E-08)
                       Final energy:   -685.78433518
 
 Results for state 1.1
 =====================
 !MCSCF STATE 1.1 Energy                      -686.012076854684
 Nuclear energy                                 87.80421870
 Kinetic energy                                690.61990086
 One electron energy                         -1126.51918491
 Two electron energy                           352.70288936
 Virial ratio                                    1.99332799
 
 !MCSCF STATE 1.1 Dipole moment                  0.00000000     0.00000000     0.18683452
 Dipole moment /Debye                            0.00000000     0.00000000     0.47488599
 
 Results for state 2.1
 =====================
 !MCSCF STATE 2.1 Energy                      -685.788128298582
 Nuclear energy                                 87.80421870
 Kinetic energy                                689.06185328
 One electron energy                         -1120.30480964
 Two electron energy                           346.71246264
 Virial ratio                                    1.99524901
 
 !MCSCF STATE 2.1 Dipole moment                  0.00000000     0.00000000    -1.95931518
 Dipole moment /Debye                            0.00000000     0.00000000    -4.98008245
 
 Results for state 3.1
 =====================
 !MCSCF STATE 3.1 Energy                      -685.692112030489
 Nuclear energy                                 87.80421870
 Kinetic energy                                690.15438378
 One electron energy                         -1123.31961065
 Two electron energy                           349.82327992
 Virial ratio                                    1.99353439
 
 !MCSCF STATE 3.1 Dipole moment                  0.00000000     0.00000000     1.15558278
 Dipole moment /Debye                            0.00000000     0.00000000     2.93719845
 
 Results for state 4.1
 =====================
 !MCSCF STATE 4.1 Energy                      -685.645023520805
 Nuclear energy                                 87.80421870
 Kinetic energy                                689.03603022
 One electron energy                         -1119.73991926
 Two electron energy                           346.29067704
 Virial ratio                                    1.99507862
 
 !MCSCF STATE 4.1 Dipole moment                  0.00000000     0.00000000    -0.28845209
 Dipole moment /Debye                            0.00000000     0.00000000    -0.73317209
 
 State-averaged charge density matrix saved on record 2140.2 (density set 1)
 
 Expectation values: (only non-zero values are shown)
 
 !MCSCF expec                       <1.1|DMZ|1.1>     0.186834521248 au =     0.474885985453 Debye
 !MCSCF expec                       <2.1|DMZ|2.1>    -1.959315180208 au =    -4.980082449168 Debye
 !MCSCF expec                       <3.1|DMZ|3.1>     1.155582776156 au =     2.937198445777 Debye
 !MCSCF expec                       <4.1|DMZ|4.1>    -0.288452092430 au =    -0.733172088619 Debye
 
 Transition values: (only non-zero values with the ground state are shown)
 
 !MCSCF trans                       <1.1|DMZ|2.1>     0.469568835476 au =     1.193524931492 Debye
 !MCSCF trans                       <1.1|DMZ|4.1>    -0.659363420185 au =    -1.675934647809 Debye
 
 
 Natural orbital dump (state averaged) at molpro section 2140.2 (Orbital set 2)
 
 Reoptimze the CI vectors with natural orbitals 
 
 CI Coefficients of symmetry 1
 =============================
 
 2220 20 20      0.97951854      0.01608494      0.00000000      0.00633386
 22ba 20 20      0.00349735     -0.67716732     -0.00000000     -0.02132683
 22ab 20 20     -0.00349735      0.67716732      0.00000000      0.02132683
 2a2b 20 20      0.01098297     -0.07180361     -0.00000000      0.58349050
 2b2a 20 20     -0.01098297      0.07180361      0.00000000     -0.58349050
 2220 20 ba     -0.02227149      0.02725066     -0.47646550      0.21932280
 2220 20 ab      0.02227149     -0.02725066      0.47646550     -0.21932280
 2220 ab 20      0.02227149     -0.02725066     -0.47646550     -0.21932280
 2220 ba 20     -0.02227149      0.02725066      0.47646550      0.21932280
 2200 20 22     -0.09259797     -0.01172878      0.14847262     -0.03945717
 2200 22 20     -0.09259797     -0.01172878     -0.14847262     -0.03945717
 2202 20 20     -0.01636358      0.11322067     -0.00000000      0.04160741
 22ab 20 ba      0.00655387     -0.06114911      0.02634740     -0.11119636
 22ab ba 20      0.00655387     -0.06114911     -0.02634740     -0.11119636
 22ba 20 ab      0.00655387     -0.06114911      0.02634740     -0.11119636
 22ba ab 20      0.00655387     -0.06114911     -0.02634740     -0.11119636
 2220 02 20     -0.05021036      0.00155279      0.08668293      0.03594445
 2220 20 02     -0.05021036      0.00155279     -0.08668293      0.03594445
 22bb 20 aa      0.00397500      0.02582635     -0.00786109      0.06755753
 22bb aa 20      0.00397500      0.02582635      0.00786109      0.06755753
 22aa 20 bb      0.00397500      0.02582635     -0.00786109      0.06755753
 22aa bb 20      0.00397500      0.02582635      0.00786109      0.06755753
 2a0b 22 20     -0.00207356      0.03362853     -0.00242243     -0.06413595
 2a0b 20 22     -0.00207356      0.03362853      0.00242243     -0.06413595
 2b0a 22 20      0.00207356     -0.03362853      0.00242243      0.06413595
 2b0a 20 22      0.00207356     -0.03362853     -0.00242243      0.06413595
 2200 22 ba      0.00867850     -0.00006574      0.05957369     -0.02174870
 2200 22 ab     -0.00867850      0.00006574     -0.05957369      0.02174870
 2200 ab 22     -0.00867850      0.00006574      0.05957369      0.02174870
 2200 ba 22      0.00867850     -0.00006574     -0.05957369     -0.02174870
 
 Energy:      -686.01207685   -685.78812830   -685.69211203   -685.64502352
 


 **********************************************************************************************************************************
 DATASETS  * FILE   NREC   LENGTH (MB)   RECORD NAMES
              1      21      592.35       500      700      610      701      900      950      970     1000      129      960   
                                          VAR     GEOM    BASINP    GEOM    SYMINP    ZMAT    AOBASIS   BASIS     P2S    ABASIS    
                                         1100     1400     1410     1200     1210     1080     1600     1650     1300     1700   
                                           S        T        V       H0       H01     AOSYM     SMH    MOLCAS    ERIS     OPER   
                                         1380   
                                         JKOP   

              2       8       18.16       500      610      700     1000      520     2100     2140      701   
                                          VAR    BASINP    GEOM     BASIS   MCVARS     RHF     MCSCF    GEOM   

 PROGRAMS   *        TOTAL     MULTI       INT   RESTART
 CPU TIMES  *        38.17      2.42     35.65      0.01
 REAL TIME  *        39.78 SEC
 DISK USED  *         1.82 GB
 **********************************************************************************************************************************


 PROGRAM * CI (Multireference internally contracted CI)     Authors: H.-J. Werner, P.J. Knowles, 1987


 Convergence thresholds:  THRVAR = 1.00D-08  THRDEN = 1.00D-06

 Number of optimized states: 3  Roots:    1   2   3
 Number of reference states: 3  Roots:    1   2   3

 Program parameters:       NSTATE=  3    NSTATI=  4    NSTATR=  3    NCEPA = -1    NOKOP =  0    ITRDM =  0    ITRANS=  0
                           IDIP  =200    MAXIT =250    MAXITI=250    MAXDAV=  9    MAXVI = 12    NOSING=  0    NOPAIR=  0
                           MXSHRF=  6    IKCPS =  0    IOPTGM=  2    IOPTOR=  0    REFOPT=  1    IAVDEN=  0    IDELCG=  1
                           IREST =  0    NATORB=  0    IPUNRF=  0    ISEP  =  0    OLDDEN=  0    NSTPRI=  1    GPSFLI= -1
                           CLUSTE=  0    CLOSED=  1    ILSTYP=  0    ITRLS =  0    ICCSD =  0    LOCAL =  0    IBASO =  0
                           MP    =  0    ITEDIS=  2    INCDIS=  1    MAXDIS=  6    ITYDIS=  1    BRUECK=  0    IBRSTR=  3
                           INCBRK=  1    TRIPLE=  0    ICCTYP=  1    IHPPD =  0    ICCNEW=  0    I3EXT = -1    IDEB  =  0
                           IDLEIG=  1    IDFTYP=  1    IMP3  =  0    IPROCS=  0    NOINT =  0    NOREF =  1    IMP2G =  0
                           IHINT =  0    IFDIA =  0    ISPARO=  1    JKSYM =  0    CPHF  =  0    MP2D  = -1    DKINT =  0
                           NPKEX =  1    DRVK  =  1    HLSTRA=  1    WIGNER=  1    DIIS_C=  1    MAXIT_= 50    MATEL =  0
                           SPDEG =  1    MEMCPH=  0    DISM  =  1    KDCPMA=  5    IKDCP_=  0    IREDTH=  0    USECS =  0
                           IPROCC=  0    I3SAVE=  1    IKDCP =  1    USECI =  0    OLDPAI=  0    IPROCI=  0    KEEPCL=  1
                           DISCON=  0    SHIFTE=  0    DIISIN=  0    MOLCAS=  0    MEM_PT=  0    RECORD=  0    RS2C  =  0
                           KEXT  = -1    CIPT2 =  0    DECP0S=  0    I4EXT = -1    NATCOR=  0    RIMP2 =  0    DDCI  = -1
                           IPOLAR=  0

 Reference symmetry:                   1   Singlet 
 Number of electrons:                 30
 Maximum number of shells:             6
 Maximum number of spin couplings:    42

 Reference space:      240 conf      328 CSFs
 N elec internal:      784 conf     1176 CSFs
 N-1 el internal:     1016 conf     2352 CSFs
 N-2 el internal:     1107 conf     4116 CSFs

 Number of electrons in valence space:                     10
 Maximum number of open shell orbitals in reference space:  6
 Maximum number of open shell orbitals in internal spaces: 10


 Number of core orbitals:          10 (   6   2   2   0 )
 Number of active  orbitals:        8 (   4   2   2   0 )
 Number of external orbitals:     244 (  86  60  60  38 )

 Molecular orbitals read from record     2140.2  Type=MCSCF/NATURAL (state averaged)

 Valence orbitals related to previous ones by unitary transformation. Operators transformed.


 Number of p-space configurations:   7

 Reference wavefunction optimized for reference space (refopt=1)

 State     Reference Energy 
     1      -686.01207685
     2      -685.78812830
     3      -685.69211203
     4      -685.64502352

 Number of blocks in overlap matrix:     8   Smallest eigenvalue:  0.13D-03
 Number of N-2 electron functions:     192
 Number of N-1 electron functions:    2352

 Number of internal configurations:                  328
 Number of singly external configurations:        144816
 Number of doubly external configurations:       1459440
 Total number of contracted configurations:      1604584
 Total number of uncontracted configurations:   30813616

 Diagonal Coupling coefficients finished.               Storage:  228761 words, CPU-Time:      0.08 seconds.
 Energy denominators for pairs finished in 1 passes.    Storage:  376976 words, CPU-time:      0.02 seconds.

  ITER. STATE  ROOT     SQ.NORM     CORR.ENERGY   TOTAL ENERGY   ENERGY CHANGE       DEN1      VAR(S)    VAR(P)      TIME
    1     1     1     1.00000000     0.00000000  -686.01207685    -0.00000000    -0.26897090  0.54D-01  0.59D-01     0.58
    1     2     2     1.00000000     0.00000000  -685.78812830    -0.00000000    -0.24817276  0.53D-01  0.54D-01     0.58
    1     3     3     1.00000000     0.00000000  -685.69211203     0.00000000    -0.27276036  0.69D-01  0.63D-01     0.58
    2     1     1     1.10142009    -0.25462500  -686.26670185    -0.25462500    -0.01068410  0.29D-02  0.19D-02    15.28
    2     2     2     1.10117176    -0.24126084  -686.02938913    -0.24126084    -0.00790576  0.23D-02  0.15D-02    15.28
    2     3     3     1.11949677    -0.25972983  -685.95184186    -0.25972983    -0.00839645  0.19D-02  0.18D-02    15.28
    3     1     1     1.10599054    -0.26551645  -686.27759331    -0.01089146    -0.00071777  0.11D-03  0.15D-03    30.17
    3     2     2     1.10516320    -0.24961926  -686.03774756    -0.00835842    -0.00062788  0.15D-03  0.13D-03    30.17
    3     3     3     1.12572873    -0.26894619  -685.96105822    -0.00921636    -0.00067006  0.20D-03  0.14D-03    30.17
    4     1     1     1.10890879    -0.26636019  -686.27843705    -0.00084374    -0.00007643  0.11D-04  0.17D-04    45.29
    4     2     2     1.10835413    -0.25033013  -686.03845843    -0.00071087    -0.00007676  0.23D-04  0.16D-04    45.29
    4     3     3     1.13159185    -0.26977165  -685.96188368    -0.00082547    -0.00008653  0.26D-04  0.17D-04    45.29
    5     1     1     1.10955155    -0.26645231  -686.27852916    -0.00009211    -0.00001047  0.15D-05  0.22D-05    60.27
    5     2     2     1.10911588    -0.25042415  -686.03855245    -0.00009403    -0.00001411  0.43D-05  0.28D-05    60.27
    5     3     3     1.13324958    -0.26987979  -685.96199182    -0.00010814    -0.00001636  0.70D-05  0.28D-05    60.27
    6     1     1     1.10957108    -0.26646468  -686.27854154    -0.00001238    -0.00000141  0.22D-06  0.30D-06    75.11
    6     2     2     1.10909216    -0.25044178  -686.03857008    -0.00001763    -0.00000294  0.83D-06  0.58D-06    75.11
    6     3     3     1.13357147    -0.26989904  -685.96201107    -0.00001925    -0.00000378  0.19D-05  0.58D-06    75.11
    7     1     1     1.10960539    -0.26646633  -686.27854319    -0.00000165    -0.00000025  0.47D-07  0.51D-07    89.88
    7     2     2     1.10915048    -0.25044528  -686.03857358    -0.00000350    -0.00000072  0.28D-06  0.13D-06    89.88
    7     3     3     1.13386552    -0.26990390  -685.96201593    -0.00000485    -0.00000120  0.64D-06  0.18D-06    89.88
    8     1     1     1.10962296    -0.26646662  -686.27854348    -0.00000029    -0.00000005  0.76D-08  0.98D-08   104.65
    8     2     2     1.10917980    -0.25044610  -686.03857440    -0.00000082    -0.00000018  0.58D-07  0.34D-07   104.65
    8     3     3     1.13404928    -0.26990548  -685.96201751    -0.00000159    -0.00000045  0.28D-06  0.63D-07   104.65
    9     1     1     1.10962743    -0.26646668  -686.27854353    -0.00000005    -0.00000001  0.15D-08  0.19D-08   119.47
    9     2     2     1.10918177    -0.25044631  -686.03857460    -0.00000021    -0.00000005  0.18D-07  0.88D-08   119.47
    9     3     3     1.13412096    -0.26990603  -685.96201806    -0.00000055    -0.00000019  0.11D-06  0.24D-07   119.47
   10     1     1     1.10962751    -0.26646668  -686.27854353    -0.00000000    -0.00000001  0.15D-08  0.19D-08   130.79
   10     2     2     1.10918697    -0.25044636  -686.03857466    -0.00000006    -0.00000001  0.59D-08  0.25D-08   130.79
   10     3     3     1.13424200    -0.26990636  -685.96201839    -0.00000033    -0.00000005  0.20D-07  0.65D-08   130.79
   11     1     1     1.10962751    -0.26646668  -686.27854353    -0.00000000    -0.00000001  0.15D-08  0.19D-08   138.84
   11     2     2     1.10918697    -0.25044636  -686.03857466    -0.00000000    -0.00000001  0.59D-08  0.25D-08   138.84
   11     3     3     1.13425853    -0.26990641  -685.96201844    -0.00000005    -0.00000001  0.32D-08  0.14D-08   138.84


 =====================================
 Analysis of CPU times by interactions
 =====================================

       I      S      P

 I   0.1%
 S   0.1%   1.5%
 P   0.5%   6.3%  55.7%

 Initialization:   0.3%
 Other:           35.4%

 Total CPU:      138.8 seconds
 =====================================



 gnormi=  0.90120332  gnorms=  0.03346571  gnormp=  0.06533097  gnorm=  1.00000000
 ecorri= -0.24014065  ecorrs= -0.00891765  ecorrp= -0.01740838  ecorr= -0.26646668

 gnormi=  0.90156126  gnorms=  0.03938306  gnormp=  0.05905568  gnorm=  1.00000000
 ecorri= -0.22579274  ecorrs= -0.00986315  ecorrp= -0.01479048  ecorr= -0.25044636

 gnormi=  0.88163322  gnorms=  0.05507414  gnormp=  0.06329264  gnorm=  1.00000000
 ecorri= -0.23795846  ecorrs= -0.01486338  ecorrp= -0.01708458  ecorr= -0.26990641

 Reference coefficients greater than 0.0500000
 =============================================
 22202020           0.9337937  -0.0085583   0.0000000
 22/\2020           0.0148212   0.9160642  -0.0000001
 222020/\           0.0151083  -0.0404027  -0.6329001
 2220/\20           0.0151084  -0.0404028   0.6328984
 22002022          -0.0827523  -0.0113508  -0.1515349
 22002220          -0.0827525  -0.0113508   0.1515347
 22022020          -0.0151474   0.1190552  -0.0000000
 2/2\2020           0.0069762  -0.0854839   0.0000000
 220022/\          -0.0063362   0.0016960   0.0735375
 2200/\22          -0.0063363   0.0016960  -0.0735373
 22/\20/\          -0.0136633   0.0716468   0.0295238
 22/\/\20          -0.0136633   0.0716468  -0.0295239
 22202002          -0.0435798   0.0047048   0.0710953
 22200220          -0.0435798   0.0047048  -0.0710952
 2/2\/\20          -0.0211860   0.0646338  -0.0136594
 2/2\20/\          -0.0211860   0.0646337   0.0136594
 2220/\/\          -0.0570796   0.0035682   0.0000002

 Coefficients of singly external configurations greater than 0.0500000
 =====================================================================

 222020\0  10.3     0.0075002  -0.0015930   0.0503754
 2220\020  10.2     0.0075003  -0.0015930  -0.0503749

 Coefficients of fixed reference functions:
 ==========================================

 State      Coefficients
 1           0.948579    0.022250    0.000000
 2          -0.023421    0.948236   -0.000000
 3          -0.000000   -0.000000    0.938339

 Coefficients of rotated reference functions:
 ============================================

 State      Coefficients
 1           0.948840   -0.000589   -0.000000
 2          -0.000589    0.948525   -0.000000
 3          -0.000000   -0.000000    0.938339


 RESULTS FOR STATE 1.1
 =====================

 Coefficient of reference function:   C(0) = 0.94857944 (fixed)   0.94931729 (relaxed)   0.94884017 (rotated)

 Energy contributions of configuration classes

 CLASS          SQ.NORM        ECORR1        ECORR2
 +++++++++++++++++++++++++++++++++++++++++++++++++++
 Internals    0.00100594   -0.00000335   -0.18621746
 Singles      0.03717183   -0.05989482   -0.06284082
 Pairs        0.07256597   -0.00000003   -0.01740840
 Total        1.11074373   -0.05989820   -0.26646668
 +++++++++++++++++++++++++++++++++++++++++++++++++++


 Reference energy                    -686.01194710
 Nuclear energy                        87.80421870
 Kinetic energy                       690.24579495
 One electron energy                -1125.41737826
 Two electron energy                  351.33461603
 Virial quotient                       -0.99425241
 Correlation energy                    -0.26659643
 !MRCI STATE 1.1 Energy              -686.278543532095

 Properties without orbital relaxation:

 !MRCI STATE 1.1 Dipole moment          0.00000000     0.00000000     0.15902381
 Dipole moment /Debye                   0.00000000     0.00000000     0.40419821

 Cluster corrected energies          -686.30806742 (Davidson, fixed reference)
 Cluster corrected energies          -686.30776984 (Davidson, relaxed reference)
 Cluster corrected energies          -686.30806742 (Davidson, rotated reference)

 Cluster corrected energies          -686.30378703 (Pople, fixed reference)
 Cluster corrected energies          -686.30351588 (Pople, relaxed reference)
 Cluster corrected energies          -686.30378703 (Pople, rotated reference)



 RESULTS FOR STATE 2.1
 =====================

 Coefficient of reference function:   C(0) = 0.94823589 (fixed)   0.94950580 (relaxed)   0.94852490 (rotated)

 Energy contributions of configuration classes

 CLASS          SQ.NORM        ECORR1        ECORR2
 +++++++++++++++++++++++++++++++++++++++++++++++++++
 Internals    0.00206932   -0.00000335   -0.16669960
 Singles      0.04377357   -0.06568097   -0.06895628
 Pairs        0.06563934    0.00000000   -0.01479048
 Total        1.11148223   -0.06568432   -0.25044636
 +++++++++++++++++++++++++++++++++++++++++++++++++++


 Reference energy                    -685.78825805
 Nuclear energy                        87.80421870
 Kinetic energy                       689.51781305
 One electron energy                -1120.91123795
 Two electron energy                  347.06844459
 Virial quotient                       -0.99495410
 Correlation energy                    -0.25031661
 !MRCI STATE 2.1 Energy              -686.038574660028

 Properties without orbital relaxation:

 !MRCI STATE 2.1 Dipole moment          0.00000000     0.00000000    -1.91175967
 Dipole moment /Debye                   0.00000000     0.00000000    -4.85920840

 Cluster corrected energies          -686.06648051 (Davidson, fixed reference)
 Cluster corrected energies          -686.06590597 (Davidson, relaxed reference)
 Cluster corrected energies          -686.06648051 (Davidson, rotated reference)

 Cluster corrected energies          -686.06244528 (Pople, fixed reference)
 Cluster corrected energies          -686.06192167 (Pople, relaxed reference)
 Cluster corrected energies          -686.06244528 (Pople, rotated reference)



 RESULTS FOR STATE 3.1
 =====================

 Coefficient of reference function:   C(0) = 0.93833900 (fixed)   0.93895326 (relaxed)   0.93833900 (rotated)

 Energy contributions of configuration classes

 CLASS          SQ.NORM        ECORR1        ECORR2
 +++++++++++++++++++++++++++++++++++++++++++++++++++
 Internals    0.00130967   -0.00000000   -0.00031124
 Singles      0.06255013   -0.07508668   -0.08097570
 Pairs        0.07188424   -0.19481973   -0.18861947
 Total        1.13574404   -0.26990641   -0.26990641
 +++++++++++++++++++++++++++++++++++++++++++++++++++


 Reference energy                    -685.69211203
 Nuclear energy                        87.80421870
 Kinetic energy                       690.22385202
 One electron energy                -1123.22688985
 Two electron energy                  349.46065271
 Virial quotient                       -0.99382543
 Correlation energy                    -0.26990641
 !MRCI STATE 3.1 Energy              -685.962018443290

 Properties without orbital relaxation:

 !MRCI STATE 3.1 Dipole moment          0.00000000     0.00000000     1.05768905
 Dipole moment /Debye                   0.00000000     0.00000000     2.68837742

 Cluster corrected energies          -685.99865663 (Davidson, fixed reference)
 Cluster corrected energies          -685.99825568 (Davidson, relaxed reference)
 Cluster corrected energies          -685.99865663 (Davidson, rotated reference)

 Cluster corrected energies          -685.99381718 (Pople, fixed reference)
 Cluster corrected energies          -685.99344127 (Pople, relaxed reference)
 Cluster corrected energies          -685.99381718 (Pople, rotated reference)


 !MRCI trans          <2.1|DMZ|1.1>     0.445585075442 au =     1.132564294013 Debye

 !MRCI trans          <3.1|DMZ|1.1>    -0.000001837502 au =    -0.000004670463 Debye

 !MRCI trans          <3.1|DMZ|2.1>     0.000000345298 au =     0.000000877660 Debye


 **********************************************************************************************************************************
 DATASETS  * FILE   NREC   LENGTH (MB)   RECORD NAMES
              1      21      592.35       500      700      610      701      900      950      970     1000      129      960   
                                          VAR     GEOM    BASINP    GEOM    SYMINP    ZMAT    AOBASIS   BASIS     P2S    ABASIS    
                                         1100     1400     1410     1200     1210     1080     1600     1650     1300     1700   
                                           S        T        V       H0       H01     AOSYM     SMH    MOLCAS    ERIS     OPER   
                                         1380   
                                         JKOP   

              2       8       18.16       500      610      700     1000      520     2100     2140      701   
                                          VAR    BASINP    GEOM     BASIS   MCVARS     RHF     MCSCF    GEOM   

 PROGRAMS   *        TOTAL        CI     MULTI       INT   RESTART
 CPU TIMES  *       177.59    139.41      2.42     35.65      0.01
 REAL TIME  *       183.88 SEC
 DISK USED  *         1.82 GB
 **********************************************************************************************************************************
 SETTING E1(1)          =      -686.27854353  AU                              
 SETTING E2(1)          =      -686.03857466  AU                              
 SETTING E3(1)          =      -685.96201844  AU                              

 DO I                   =         2.00000000   


 Using spherical harmonics

 Library entry SI     S aug-cc-pV5Z          selected for orbital group  1
 Library entry SI     P aug-cc-pV5Z          selected for orbital group  1
 Library entry SI     D aug-cc-pV5Z          selected for orbital group  1
 Library entry SI     F aug-cc-pV5Z          selected for orbital group  1
 Library entry SI     G aug-cc-pV5Z          selected for orbital group  1
 Library entry SI     H aug-cc-pV5Z          selected for orbital group  1
 Library entry S      S aug-cc-pV5Z          selected for orbital group  2
 Library entry S      P aug-cc-pV5Z          selected for orbital group  2
 Library entry S      D aug-cc-pV5Z          selected for orbital group  2
 Library entry S      F aug-cc-pV5Z          selected for orbital group  2
 Library entry S      G aug-cc-pV5Z          selected for orbital group  2
 Library entry S      H aug-cc-pV5Z          selected for orbital group  2


 PROGRAM * SEWARD (Integral evaluation for generally contracted gaussian basis sets)     Author: Roland Lindh, 1990

 Geometry written to block  1 of record 701

 Orientation using atomic masses  
 Molecule type: Linear
 Symmetry elements: X,Y
 Rotational constants:      18.6607924     18.6607924      0.0000000 GHz  (calculated with average atomic masses)

 Point group  C2v 



 ATOMIC COORDINATES

 NR  ATOM    CHARGE       X              Y              Z

   1  SI     14.00    0.000000000    0.000000000   -1.354819784
   2  S      16.00    0.000000000    0.000000000    1.186861854

 Bond lengths in Bohr (Angstrom)

 1-2  2.541681638
     ( 1.345000000)

 NUCLEAR CHARGE:                   30
 NUMBER OF PRIMITIVE AOS:         434
 NUMBER OF SYMMETRY AOS:          324
 NUMBER OF CONTRACTIONS:          262   (   96A1  +   64B1  +   64B2  +   38A2  )
 NUMBER OF INNER CORE ORBITALS:     2   (    2A1  +    0B1  +    0B2  +    0A2  )
 NUMBER OF OUTER CORE ORBITALS:     8   (    4A1  +    2B1  +    2B2  +    0A2  )
 NUMBER OF VALENCE ORBITALS:        8   (    4A1  +    2B1  +    2B2  +    0A2  )


 NUCLEAR REPULSION ENERGY   88.13062843

 EXTRA SYMMETRY OF AOS IN SYMMETRY 1:   1 1 1 1 1 1 1 1 1 1   1 1 1 1 1 1 2 1 2 1   2 1 2 1 2 1 2 1 2 1   2 1 2 1 3 2 1 3 2 1
                                        3 2 2 3 1 2 3 1 1 1   1 1 1 1 1 1 1 1 1 1   1 1 1 1 2 1 2 1 2 1   2 1 2 1 2 1 2 1 2 1
                                        2 1 3 2 1 3 2 1 3 2   2 3 1 2 3 1
 EXTRA SYMMETRY OF AOS IN SYMMETRY 2:   1 1 1 1 1 1 1 1 1 1   1 1 1 2 1 2 1 2 1 2   1 2 1 2 1 2 1 2 3 1   2 3 1 1 1 1 1 1 1 1
                                        1 1 1 1 1 2 1 2 1 2   1 2 1 2 1 2 1 2 1 2   3 1 2 3
 EXTRA SYMMETRY OF AOS IN SYMMETRY 3:   1 1 1 1 1 1 1 1 1 1   1 1 1 2 1 2 1 2 1 2   1 2 1 2 1 2 1 2 3 1   2 3 1 1 1 1 1 1 1 1
                                        1 1 1 1 1 2 1 2 1 2   1 2 1 2 1 2 1 2 1 2   3 1 2 3
 EXTRA SYMMETRY OF AOS IN SYMMETRY 4:   1 1 1 1 1 1 1 1 1 1   2 1 2 1 2 2 1 2 1 1   1 1 1 1 1 1 1 1 1 2   1 2 1 2 2 1 2 1

 Eigenvalues of metric

         1 0.456E-05 0.523E-05 0.884E-05 0.144E-04 0.171E-04 0.616E-04 0.771E-04 0.220E-03
         2 0.750E-05 0.816E-05 0.870E-04 0.469E-03 0.726E-03 0.989E-03 0.392E-02 0.635E-02
         3 0.750E-05 0.816E-05 0.870E-04 0.469E-03 0.726E-03 0.989E-03 0.392E-02 0.635E-02
         4 0.413E-03 0.280E-02 0.103E-01 0.119E-01 0.322E-01 0.418E-01 0.597E-01 0.802E-01


 Contracted 2-electron integrals neglected if value below      1.0D-12
 AO integral compression algorithm  1   Integral accuracy      1.0D-12

     675.545 MB (compressed) written to integral file ( 46.6%)


 NUMBER OF SORTED TWO-ELECTRON INTEGRALS:  150955559.     BUFFER LENGTH:  32768
 NUMBER OF SEGMENTS:  10  SEGMENT LENGTH:   15998976      RECORD LENGTH: 524288

 Memory used in sort:      16.56 MW

 SORT1 READ   181316810. AND WROTE   100603950. INTEGRALS IN    293 RECORDS. CPU TIME:     2.02 SEC, REAL TIME:     2.51 SEC
 SORT2 READ   100603950. AND WROTE   150955559. INTEGRALS IN   2577 RECORDS. CPU TIME:     1.53 SEC, REAL TIME:     1.81 SEC

 FILE SIZES:   FILE 1:   707.2 MBYTE,  FILE 4:  1229.0 MBYTE,   TOTAL:   1936.2 MBYTE

 OPERATOR DM      FOR CENTER  0  COORDINATES:    0.000000    0.000000    0.000000


 **********************************************************************************************************************************
 DATASETS  * FILE   NREC   LENGTH (MB)   RECORD NAMES
              1      20      557.50       500      700      610      701      900      950      970     1000      129      960   
                                          VAR     GEOM    BASINP    GEOM    SYMINP    ZMAT    AOBASIS   BASIS     P2S    ABASIS    
                                         1100     1400     1410     1200     1210     1080     1600     1650     1300     1700   
                                           S        T        V       H0       H01     AOSYM     SMH    MOLCAS    ERIS     OPER   

              2       8       18.16       500      610      700     1000      520     2100     2140      701   
                                          VAR    BASINP    GEOM     BASIS   MCVARS     RHF     MCSCF    GEOM   

 PROGRAMS   *        TOTAL       INT        CI     MULTI       INT   RESTART
 CPU TIMES  *       213.22     35.63    139.41      2.42     35.65      0.01
 REAL TIME  *       220.73 SEC
 DISK USED  *         1.82 GB
 **********************************************************************************************************************************

 PROGRAM * MULTI (Direct Multiconfiguration SCF)       Authors: P.J. Knowles, H.-J. Werner (1984)
                                                                D.A. Kreplin, P.J. Knowles, H.-J. Werner (2019)

 Number of closed-shell orbitals:  10 (   6   2   2   0 )
 Number of active  orbitals:        8 (   4   2   2   0 )
 Number of external orbitals:     244 (  86  60  60  38 )

 State symmetry 1

 Number of active electrons:  10    Spin symmetry=Singlet   Space symmetry=1
 Number of states:             4
 Number of CSFs:             328   (792 determinants, 3136 intermediate states)

 Molecular orbitals read from record     2140.2  Type=MCSCF/NATURAL (state averaged)

 EXTRA SYMMETRY OF MOS IN SYMMETRY 1:   1 1 1 1 1 1 1 1 1 1   1 1 1 2 1 1 2 1 2 1   1 2 1 1 1 2 1 2 3 1   1 2 1 2 1 2 1 3 1 2
                                        1 2 1 1 2 1 3 2 1 2   3 1 2 1 1 1 3 2 2 1   2 1 3 1 2 1 1 2 1 2   3 3 2 1 1 1 2 1 2 1
                                        3 1 3 2 2 1 1 2 1 1   2 1 1 1 1 1
 EXTRA SYMMETRY OF MOS IN SYMMETRY 2:   1 1 1 1 1 1 1 1 2 1   1 1 1 2 1 1 2 1 2 1   1 1 2 1 2 1 1 2 3 1   2 1 1 2 1 2 1 3 1 2
                                        1 1 2 2 1 1 3 2 1 1   2 1 2 1 1 3 2 1 2 1   1 1 1 1
 EXTRA SYMMETRY OF MOS IN SYMMETRY 3:   1 1 1 1 1 1 1 1 2 1   1 1 1 2 1 1 2 1 2 1   1 1 2 1 2 1 1 2 3 1   2 1 1 2 1 2 1 3 1 2
                                        1 1 2 2 1 1 3 2 1 1   2 1 2 1 1 3 2 1 2 1   1 1 1 1
 EXTRA SYMMETRY OF MOS IN SYMMETRY 4:   1 1 1 1 1 1 2 1 1 1   2 1 1 1 2 1 1 2 1 2   1 1 1 2 1 1 1 2 2 1   1 1 2 2 1 1 1 1

 Wavefunction dump at record             2140.2

 Convergence thresholds  0.10E-04 (gradient)  0.10E-05 (energy)

 Weight factors for state symmetry  1:    0.25000   0.25000   0.25000   0.25000
 
 Number of orbital rotations:  1372  ( 32 closed/active, 756 closed/virtual, 0 active/active, 584 active/virtual )
 Total number of variables:    4540
 
  Second-order MCSCF: L-BFGS accelerated
 
 ITER  MIC  NCI  NEG     ENERGY(VAR)    ENERGY(PROJ) ENERGY CHANGE       GRAD(0)  GRAD(ORB)   GRAD(CI)      STEP      TIME
   1    9   20    0   -685.76981923    -685.76984814   -0.00002891    0.01181473 0.00001676 0.00000696  0.88E-02      1.45
   2   14   21    0   -685.76984813    -685.76984813   -0.00000000    0.00001209 0.00000000 0.00000002  0.22E-04      2.97
   3    4    2    0   -685.76984813    -685.76984813    0.00000000    0.00000000 0.00000000 0.00000000  0.93E-09      4.23

 CONVERGENCE REACHED!  Final gradient:    0.00000000 ( 0.10E-08)
                       Final energy:   -685.76984813
 
 Results for state 1.1
 =====================
 !MCSCF STATE 1.1 Energy                      -685.997843935576
 Nuclear energy                                 88.13062843
 Kinetic energy                                690.67625826
 One electron energy                         -1127.13304182
 Two electron energy                           353.00456945
 Virial ratio                                    1.99322633
 
 !MCSCF STATE 1.1 Dipole moment                  0.00000000     0.00000000     0.19120958
 Dipole moment /Debye                            0.00000000     0.00000000     0.48600627
 
 Results for state 2.1
 =====================
 !MCSCF STATE 2.1 Energy                      -685.774696086210
 Nuclear energy                                 88.13062843
 Kinetic energy                                689.11081716
 One electron energy                         -1120.90527278
 Two electron energy                           346.99994826
 Virial ratio                                    1.99515880
 
 !MCSCF STATE 2.1 Dipole moment                  0.00000000     0.00000000    -1.96041454
 Dipole moment /Debye                            0.00000000     0.00000000    -4.98287675
 
 Results for state 3.1
 =====================
 !MCSCF STATE 3.1 Energy                      -685.676055103894
 Nuclear energy                                 88.13062843
 Kinetic energy                                690.20228665
 One electron energy                         -1123.91494965
 Two electron energy                           350.10826611
 Virial ratio                                    1.99344217
 
 !MCSCF STATE 3.1 Dipole moment                  0.00000000     0.00000000     1.15592741
 Dipole moment /Debye                            0.00000000     0.00000000     2.93807441
 
 Results for state 4.1
 =====================
 !MCSCF STATE 4.1 Energy                      -685.630797379297
 Nuclear energy                                 88.13062843
 Kinetic energy                                689.07922463
 One electron energy                         -1120.31280399
 Two electron energy                           346.55137817
 Virial ratio                                    1.99499560
 
 !MCSCF STATE 4.1 Dipole moment                  0.00000000     0.00000000    -0.30324805
 Dipole moment /Debye                            0.00000000     0.00000000    -0.77077966
 
 State-averaged charge density matrix saved on record 2140.2 (density set 1)
 
 Expectation values: (only non-zero values are shown)
 
 !MCSCF expec                       <1.1|DMZ|1.1>     0.191209578563 au =     0.486006271952 Debye
 !MCSCF expec                       <2.1|DMZ|2.1>    -1.960414541001 au =    -4.982876745588 Debye
 !MCSCF expec                       <3.1|DMZ|3.1>     1.155927407457 au =     2.938074411172 Debye
 !MCSCF expec                       <4.1|DMZ|4.1>    -0.303248050910 au =    -0.770779663904 Debye
 
 Transition values: (only non-zero values with the ground state are shown)
 
 !MCSCF trans                       <1.1|DMZ|2.1>     0.474969664799 au =     1.207252470378 Debye
 !MCSCF trans                       <1.1|DMZ|4.1>    -0.638112158498 au =    -1.621919328365 Debye
 
 
 Natural orbital dump (state averaged) at molpro section 2140.2 (Orbital set 2)
 
 Reoptimze the CI vectors with natural orbitals 
 
 CI Coefficients of symmetry 1
 =============================
 
 2220 20 20      0.97961026      0.01734165      0.00000000      0.00493227
 22ab 20 20     -0.00444089      0.67729584      0.00000000      0.02473645
 22ba 20 20      0.00444089     -0.67729584     -0.00000000     -0.02473645
 2a2b 20 20      0.01138857     -0.07409991     -0.00000000      0.58673397
 2b2a 20 20     -0.01138857      0.07409991      0.00000000     -0.58673397
 2220 ba 20     -0.02179889      0.02677710      0.47591803      0.21473947
 2220 20 ba     -0.02179889      0.02677710     -0.47591803      0.21473947
 2220 20 ab      0.02179889     -0.02677710      0.47591803     -0.21473947
 2220 ab 20      0.02179889     -0.02677710     -0.47591803     -0.21473947
 2200 20 22     -0.09276804     -0.01178080      0.15210780     -0.03902732
 2200 22 20     -0.09276804     -0.01178080     -0.15210780     -0.03902732
 2202 20 20     -0.01640632      0.11238996     -0.00000000      0.04271256
 22ab ba 20      0.00659723     -0.06043719     -0.02683349     -0.11134529
 22ab 20 ba      0.00659723     -0.06043719      0.02683349     -0.11134529
 22ba ab 20      0.00659723     -0.06043719     -0.02683349     -0.11134529
 22ba 20 ab      0.00659723     -0.06043719      0.02683349     -0.11134529
 2220 02 20     -0.04989652      0.00143170      0.08630096      0.03509935
 2220 20 02     -0.04989652      0.00143170     -0.08630096      0.03509935
 22bb aa 20      0.00395568      0.02549429      0.00785529      0.06744903
 22aa bb 20      0.00395568      0.02549429      0.00785529      0.06744903
 22bb 20 aa      0.00395568      0.02549429     -0.00785529      0.06744903
 22aa 20 bb      0.00395568      0.02549429     -0.00785529      0.06744903
 2a0b 20 22     -0.00214856      0.03379969      0.00256877     -0.06449426
 2a0b 22 20     -0.00214856      0.03379969     -0.00256877     -0.06449426
 2b0a 20 22      0.00214856     -0.03379969     -0.00256877      0.06449426
 2b0a 22 20      0.00214856     -0.03379969      0.00256877      0.06449426
 2200 ba 22      0.00862499     -0.00003524     -0.05969795     -0.02129115
 2200 ab 22     -0.00862499      0.00003524      0.05969795      0.02129115
 2200 22 ba      0.00862499     -0.00003524      0.05969795     -0.02129115
 2200 22 ab     -0.00862499      0.00003524     -0.05969795      0.02129115
 
 Energy:      -685.99784394   -685.77469609   -685.67605510   -685.63079738
 


 **********************************************************************************************************************************
 DATASETS  * FILE   NREC   LENGTH (MB)   RECORD NAMES
              1      21      592.60       500      700      610      701      900      950      970     1000      129      960   
                                          VAR     GEOM    BASINP    GEOM    SYMINP    ZMAT    AOBASIS   BASIS     P2S    ABASIS    
                                         1100     1400     1410     1200     1210     1080     1600     1650     1300     1700   
                                           S        T        V       H0       H01     AOSYM     SMH    MOLCAS    ERIS     OPER   
                                         1380   
                                         JKOP   

              2       8       18.16       500      610      700     1000      520     2100     2140      701   
                                          VAR    BASINP    GEOM     BASIS   MCVARS     RHF     MCSCF    GEOM   

 PROGRAMS   *        TOTAL     MULTI       INT        CI     MULTI       INT   RESTART
 CPU TIMES  *       218.16      4.94     35.63    139.41      2.42     35.65      0.01
 REAL TIME  *       226.22 SEC
 DISK USED  *         1.82 GB
 **********************************************************************************************************************************


 PROGRAM * CI (Multireference internally contracted CI)     Authors: H.-J. Werner, P.J. Knowles, 1987


 Convergence thresholds:  THRVAR = 1.00D-08  THRDEN = 1.00D-06

 Number of optimized states: 3  Roots:    1   2   3
 Number of reference states: 3  Roots:    1   2   3

 Program parameters:       NSTATE=  3    NSTATI=  4    NSTATR=  3    NCEPA = -1    NOKOP =  0    ITRDM =  0    ITRANS=  0
                           IDIP  =200    MAXIT =250    MAXITI=250    MAXDAV=  9    MAXVI = 12    NOSING=  0    NOPAIR=  0
                           MXSHRF=  6    IKCPS =  0    IOPTGM=  2    IOPTOR=  0    REFOPT=  1    IAVDEN=  0    IDELCG=  1
                           IREST =  0    NATORB=  0    IPUNRF=  0    ISEP  =  0    OLDDEN=  0    NSTPRI=  1    GPSFLI= -1
                           CLUSTE=  0    CLOSED=  1    ILSTYP=  0    ITRLS =  0    ICCSD =  0    LOCAL =  0    IBASO =  0
                           MP    =  0    ITEDIS=  2    INCDIS=  1    MAXDIS=  6    ITYDIS=  1    BRUECK=  0    IBRSTR=  3
                           INCBRK=  1    TRIPLE=  0    ICCTYP=  1    IHPPD =  0    ICCNEW=  0    I3EXT = -1    IDEB  =  0
                           IDLEIG=  1    IDFTYP=  1    IMP3  =  0    IPROCS=  0    NOINT =  0    NOREF =  1    IMP2G =  0
                           IHINT =  0    IFDIA =  0    ISPARO=  1    JKSYM =  0    CPHF  =  0    MP2D  = -1    DKINT =  0
                           NPKEX =  1    DRVK  =  1    HLSTRA=  1    WIGNER=  1    DIIS_C=  1    MAXIT_= 50    MATEL =  0
                           SPDEG =  1    MEMCPH=  0    DISM  =  1    KDCPMA=  5    IKDCP_=  0    IREDTH=  0    USECS =  0
                           IPROCC=  0    I3SAVE=  1    IKDCP =  1    USECI =  0    OLDPAI=  0    IPROCI=  0    KEEPCL=  1
                           DISCON=  0    SHIFTE=  0    DIISIN=  0    MOLCAS=  0    MEM_PT=  0    RECORD=  0    RS2C  =  0
                           KEXT  = -1    CIPT2 =  0    DECP0S=  0    I4EXT = -1    NATCOR=  0    RIMP2 =  0    DDCI  = -1
                           IPOLAR=  0

 Reference symmetry:                   1   Singlet 
 Number of electrons:                 30
 Maximum number of shells:             6
 Maximum number of spin couplings:    42

 Reference space:      240 conf      328 CSFs
 N elec internal:      784 conf     1176 CSFs
 N-1 el internal:     1016 conf     2352 CSFs
 N-2 el internal:     1107 conf     4116 CSFs

 Number of electrons in valence space:                     10
 Maximum number of open shell orbitals in reference space:  6
 Maximum number of open shell orbitals in internal spaces: 10


 Number of core orbitals:          10 (   6   2   2   0 )
 Number of active  orbitals:        8 (   4   2   2   0 )
 Number of external orbitals:     244 (  86  60  60  38 )

 Molecular orbitals read from record     2140.2  Type=MCSCF/NATURAL (state averaged)

 Valence orbitals related to previous ones by unitary transformation. Operators transformed.


 Number of p-space configurations:   7

 Reference wavefunction optimized for reference space (refopt=1)

 State     Reference Energy 
     1      -685.99784394
     2      -685.77469609
     3      -685.67605510
     4      -685.63079738

 Number of blocks in overlap matrix:     8   Smallest eigenvalue:  0.13D-03
 Number of N-2 electron functions:     192
 Number of N-1 electron functions:    2352

 Number of internal configurations:                  328
 Number of singly external configurations:        144816
 Number of doubly external configurations:       1459440
 Total number of contracted configurations:      1604584
 Total number of uncontracted configurations:   30813616

 Diagonal Coupling coefficients finished.               Storage:  228761 words, CPU-Time:      0.08 seconds.
 Energy denominators for pairs finished in 1 passes.    Storage:  376976 words, CPU-time:      0.02 seconds.

  ITER. STATE  ROOT     SQ.NORM     CORR.ENERGY   TOTAL ENERGY   ENERGY CHANGE       DEN1      VAR(S)    VAR(P)      TIME
    1     1     1     1.00000000     0.00000000  -685.99784394     0.00000000    -0.26904681  0.54D-01  0.59D-01     0.57
    1     2     2     1.00000000     0.00000000  -685.77469609     0.00000000    -0.24811447  0.53D-01  0.54D-01     0.57
    1     3     3     1.00000000     0.00000000  -685.67605510     0.00000000    -0.27309587  0.69D-01  0.63D-01     0.57
    2     1     1     1.10139015    -0.25470175  -686.25254568    -0.25470175    -0.01070716  0.29D-02  0.19D-02    15.34
    2     2     2     1.10104481    -0.24128148  -686.01597757    -0.24128148    -0.00789928  0.23D-02  0.15D-02    15.34
    2     3     3     1.11982637    -0.25998270  -685.93603781    -0.25998270    -0.00844089  0.19D-02  0.18D-02    15.34
    3     1     1     1.10594135    -0.26561807  -686.26346201    -0.01091633    -0.00072038  0.11D-03  0.15D-03    30.21
    3     2     2     1.10503349    -0.24963848  -686.02433456    -0.00835700    -0.00062733  0.15D-03  0.13D-03    30.21
    3     3     3     1.12603105    -0.26924356  -685.94529866    -0.00926086    -0.00067475  0.20D-03  0.15D-03    30.21
    4     1     1     1.10886909    -0.26646560  -686.26430953    -0.00084752    -0.00007690  0.11D-04  0.17D-04    45.21
    4     2     2     1.10822099    -0.25034936  -686.02504544    -0.00071088    -0.00007680  0.23D-04  0.16D-04    45.21
    4     3     3     1.13196490    -0.27007531  -685.94613042    -0.00083175    -0.00008786  0.27D-04  0.17D-04    45.21
    5     1     1     1.10951430    -0.26655839  -686.26440233    -0.00009279    -0.00001056  0.15D-05  0.22D-05    60.24
    5     2     2     1.10897972    -0.25044354  -686.02513962    -0.00009418    -0.00001414  0.43D-05  0.28D-05    60.24
    5     3     3     1.13367308    -0.27018537  -685.94624048    -0.00011006    -0.00001691  0.74D-05  0.29D-05    60.24
    6     1     1     1.10953373    -0.26657090  -686.26441483    -0.00001251    -0.00000143  0.23D-06  0.30D-06    75.14
    6     2     2     1.10895497    -0.25046122  -686.02515730    -0.00001768    -0.00000294  0.83D-06  0.59D-06    75.14
    6     3     3     1.13401937    -0.27020542  -685.94626052    -0.00002005    -0.00000402  0.21D-05  0.62D-06    75.14
    7     1     1     1.10956856    -0.26657257  -686.26441650    -0.00000167    -0.00000026  0.47D-07  0.52D-07    89.93
    7     2     2     1.10901376    -0.25046472  -686.02516081    -0.00000351    -0.00000072  0.28D-06  0.13D-06    89.93
    7     3     3     1.13433778    -0.27021065  -685.94626575    -0.00000523    -0.00000133  0.71D-06  0.20D-06    89.93
    8     1     1     1.10958623    -0.26657286  -686.26441680    -0.00000030    -0.00000005  0.77D-08  0.10D-07   104.74
    8     2     2     1.10904299    -0.25046555  -686.02516163    -0.00000082    -0.00000018  0.58D-07  0.34D-07   104.74
    8     3     3     1.13453709    -0.27021241  -685.94626752    -0.00000176    -0.00000052  0.32D-06  0.71D-07   104.74
    9     1     1     1.10959073    -0.26657292  -686.26441685    -0.00000006    -0.00000001  0.16D-08  0.19D-08   119.49
    9     2     2     1.10904490    -0.25046576  -686.02516184    -0.00000021    -0.00000005  0.17D-07  0.89D-08   119.49
    9     3     3     1.13461621    -0.27021304  -685.94626814    -0.00000063    -0.00000022  0.12D-06  0.27D-07   119.49
   10     1     1     1.10959081    -0.26657292  -686.26441685    -0.00000000    -0.00000001  0.16D-08  0.19D-08   130.80
   10     2     2     1.10905015    -0.25046581  -686.02516190    -0.00000006    -0.00000001  0.58D-08  0.25D-08   130.80
   10     3     3     1.13475409    -0.27021343  -685.94626853    -0.00000039    -0.00000006  0.23D-07  0.78D-08   130.80
   11     1     1     1.10959081    -0.26657292  -686.26441685    -0.00000000    -0.00000001  0.16D-08  0.19D-08   138.81
   11     2     2     1.10905015    -0.25046581  -686.02516190    -0.00000000    -0.00000001  0.58D-08  0.25D-08   138.81
   11     3     3     1.13477284    -0.27021349  -685.94626859    -0.00000006    -0.00000001  0.35D-08  0.15D-08   138.81


 =====================================
 Analysis of CPU times by interactions
 =====================================

       I      S      P

 I   0.1%
 S   0.1%   1.5%
 P   0.5%   6.3%  55.7%

 Initialization:   0.3%
 Other:           35.5%

 Total CPU:      138.8 seconds
 =====================================



 gnormi=  0.90123313  gnorms=  0.03341875  gnormp=  0.06534812  gnorm=  1.00000000
 ecorri= -0.24024435  ecorrs= -0.00890870  ecorrp= -0.01741988  ecorr= -0.26657292

 gnormi=  0.90167248  gnorms=  0.03928547  gnormp=  0.05904205  gnorm=  1.00000000
 ecorri= -0.22583813  ecorrs= -0.00983945  ecorrp= -0.01478823  ecorr= -0.25046581

 gnormi=  0.88123364  gnorms=  0.05549125  gnormp=  0.06327511  gnorm=  1.00000000
 ecorri= -0.23812122  ecorrs= -0.01499289  ecorrp= -0.01709938  ecorr= -0.27021349

 Reference coefficients greater than 0.0500000
 =============================================
 22202020           0.9338907  -0.0074055  -0.0000000
 22/\2020           0.0135822   0.9163082   0.0000001
 222020/\           0.0145351  -0.0396170   0.6317665
 2220/\20           0.0145351  -0.0396170  -0.6317646
 22002022          -0.0828951  -0.0113894   0.1557755
 22002220          -0.0828952  -0.0113893  -0.1557752
 22022020          -0.0152013   0.1181903   0.0000000
 2/2\2020           0.0074311  -0.0884295  -0.0000000
 220022/\          -0.0062754   0.0016370  -0.0736481
 2200/\22          -0.0062754   0.0016370   0.0736478
 22202002          -0.0432991   0.0045524  -0.0707880
 22200220          -0.0432991   0.0045523   0.0707879
 22/\20/\          -0.0137048   0.0707376  -0.0304271
 22/\/\20          -0.0137048   0.0707376   0.0304271
 2/2\/\20          -0.0211078   0.0642895   0.0132825
 2/2\20/\          -0.0211077   0.0642895  -0.0132826
 2220/\/\          -0.0567235   0.0034411  -0.0000002

 Coefficients of singly external configurations greater than 0.0500000
 =====================================================================

 222020\0  10.3     0.0075069  -0.0015757  -0.0505335
 2220\020  10.2     0.0075070  -0.0015757   0.0505330

 Coefficients of fixed reference functions:
 ==========================================

 State      Coefficients
 1           0.948597    0.022286   -0.000000
 2          -0.023435    0.948303    0.000000
 3           0.000000    0.000000    0.938103

 Coefficients of rotated reference functions:
 ============================================

 State      Coefficients
 1           0.948859   -0.000578    0.000000
 2          -0.000578    0.948592    0.000000
 3           0.000000    0.000000    0.938103


 RESULTS FOR STATE 1.1
 =====================

 Coefficient of reference function:   C(0) = 0.94859696 (fixed)   0.94933299 (relaxed)   0.94885855 (rotated)

 Energy contributions of configuration classes

 CLASS          SQ.NORM        ECORR1        ECORR2
 +++++++++++++++++++++++++++++++++++++++++++++++++++
 Internals    0.00100028   -0.00000327   -0.18635784
 Singles      0.03711823   -0.05985181   -0.06279523
 Pairs        0.07258220    0.00000003   -0.01741985
 Total        1.11070072   -0.05985505   -0.26657292
 +++++++++++++++++++++++++++++++++++++++++++++++++++


 Reference energy                    -685.99771437
 Nuclear energy                        88.13062843
 Kinetic energy                       690.29816028
 One electron energy                -1126.02537293
 Two electron energy                  351.63032764
 Virial quotient                       -0.99415652
 Correlation energy                    -0.26670248
 !MRCI STATE 1.1 Energy              -686.264416854021

 Properties without orbital relaxation:

 !MRCI STATE 1.1 Dipole moment          0.00000000     0.00000000     0.16435726
 Dipole moment /Debye                   0.00000000     0.00000000     0.41775450

 Cluster corrected energies          -686.29394101 (Davidson, fixed reference)
 Cluster corrected energies          -686.29364500 (Davidson, relaxed reference)
 Cluster corrected energies          -686.29394101 (Davidson, rotated reference)

 Cluster corrected energies          -686.28965994 (Pople, fixed reference)
 Cluster corrected energies          -686.28939022 (Pople, relaxed reference)
 Cluster corrected energies          -686.28965994 (Pople, rotated reference)



 RESULTS FOR STATE 2.1
 =====================

 Coefficient of reference function:   C(0) = 0.94830304 (fixed)   0.94956436 (relaxed)   0.94859239 (rotated)

 Energy contributions of configuration classes

 CLASS          SQ.NORM        ECORR1        ECORR2
 +++++++++++++++++++++++++++++++++++++++++++++++++++
 Internals    0.00205034   -0.00000327   -0.16680298
 Singles      0.04365889   -0.06560718   -0.06887460
 Pairs        0.06561485   -0.00000000   -0.01478823
 Total        1.11132408   -0.06561045   -0.25046581
 +++++++++++++++++++++++++++++++++++++++++++++++++++


 Reference energy                    -685.77482565
 Nuclear energy                        88.13062843
 Kinetic energy                       689.56669851
 One electron energy                -1121.51267336
 Two electron energy                  347.35688303
 Virial quotient                       -0.99486411
 Correlation energy                    -0.25033625
 !MRCI STATE 2.1 Energy              -686.025161897735

 Properties without orbital relaxation:

 !MRCI STATE 2.1 Dipole moment          0.00000000     0.00000000    -1.91299197
 Dipole moment /Debye                   0.00000000     0.00000000    -4.86234060

 Cluster corrected energies          -686.05303035 (Davidson, fixed reference)
 Cluster corrected energies          -686.05246110 (Davidson, relaxed reference)
 Cluster corrected energies          -686.05303035 (Davidson, rotated reference)

 Cluster corrected energies          -686.04899826 (Pople, fixed reference)
 Cluster corrected energies          -686.04847957 (Pople, relaxed reference)
 Cluster corrected energies          -686.04899826 (Pople, rotated reference)



 RESULTS FOR STATE 3.1
 =====================

 Coefficient of reference function:   C(0) = 0.93810339 (fixed)   0.93874045 (relaxed)   0.93810339 (rotated)

 Energy contributions of configuration classes

 CLASS          SQ.NORM        ECORR1        ECORR2
 +++++++++++++++++++++++++++++++++++++++++++++++++++
 Internals    0.00135865   -0.00000000   -0.00032309
 Singles      0.06305552   -0.07530434   -0.08126357
 Pairs        0.07190043   -0.19490915   -0.18862683
 Total        1.13631461   -0.27021349   -0.27021349
 +++++++++++++++++++++++++++++++++++++++++++++++++++


 Reference energy                    -685.67605510
 Nuclear energy                        88.13062843
 Kinetic energy                       690.27157962
 One electron energy                -1123.82243662
 Two electron energy                  349.74553959
 Virial quotient                       -0.99373390
 Correlation energy                    -0.27021349
 !MRCI STATE 3.1 Energy              -685.946268592171

 Properties without orbital relaxation:

 !MRCI STATE 3.1 Dipole moment          0.00000000     0.00000000     1.05725605
 Dipole moment /Debye                   0.00000000     0.00000000     2.68727685

 Cluster corrected energies          -685.98310264 (Davidson, fixed reference)
 Cluster corrected energies          -685.98268603 (Davidson, relaxed reference)
 Cluster corrected energies          -685.98310264 (Davidson, rotated reference)

 Cluster corrected energies          -685.97824822 (Pople, fixed reference)
 Cluster corrected energies          -685.97785739 (Pople, relaxed reference)
 Cluster corrected energies          -685.97824822 (Pople, rotated reference)


 !MRCI trans          <2.1|DMZ|1.1>     0.450226240125 au =     1.144360957978 Debye

 !MRCI trans          <3.1|DMZ|1.1>     0.000002013975 au =     0.000005119013 Debye

 !MRCI trans          <3.1|DMZ|2.1>    -0.000000422281 au =    -0.000001073332 Debye


 **********************************************************************************************************************************
 DATASETS  * FILE   NREC   LENGTH (MB)   RECORD NAMES
              1      21      592.60       500      700      610      701      900      950      970     1000      129      960   
                                          VAR     GEOM    BASINP    GEOM    SYMINP    ZMAT    AOBASIS   BASIS     P2S    ABASIS    
                                         1100     1400     1410     1200     1210     1080     1600     1650     1300     1700   
                                           S        T        V       H0       H01     AOSYM     SMH    MOLCAS    ERIS     OPER   
                                         1380   
                                         JKOP   

              2       8       18.16       500      610      700     1000      520     2100     2140      701   
                                          VAR    BASINP    GEOM     BASIS   MCVARS     RHF     MCSCF    GEOM   

 PROGRAMS   *        TOTAL        CI     MULTI       INT        CI     MULTI       INT   RESTART
 CPU TIMES  *       357.54    139.38      4.94     35.63    139.41      2.42     35.65      0.01
 REAL TIME  *       370.25 SEC
 DISK USED  *         1.82 GB
 **********************************************************************************************************************************
 SETTING E1(2)          =      -686.26441685  AU                              
 SETTING E2(2)          =      -686.02516190  AU                              
 SETTING E3(2)          =      -685.94626859  AU                              

 DO I                   =         3.00000000   


 Using spherical harmonics

 Library entry SI     S aug-cc-pV5Z          selected for orbital group  1
 Library entry SI     P aug-cc-pV5Z          selected for orbital group  1
 Library entry SI     D aug-cc-pV5Z          selected for orbital group  1
 Library entry SI     F aug-cc-pV5Z          selected for orbital group  1
 Library entry SI     G aug-cc-pV5Z          selected for orbital group  1
 Library entry SI     H aug-cc-pV5Z          selected for orbital group  1
 Library entry S      S aug-cc-pV5Z          selected for orbital group  2
 Library entry S      P aug-cc-pV5Z          selected for orbital group  2
 Library entry S      D aug-cc-pV5Z          selected for orbital group  2
 Library entry S      F aug-cc-pV5Z          selected for orbital group  2
 Library entry S      G aug-cc-pV5Z          selected for orbital group  2
 Library entry S      H aug-cc-pV5Z          selected for orbital group  2


 PROGRAM * SEWARD (Integral evaluation for generally contracted gaussian basis sets)     Author: Roland Lindh, 1990

 Geometry written to block  1 of record 701

 Orientation using atomic masses  
 Molecule type: Linear
 Symmetry elements: X,Y
 Rotational constants:      18.8003119     18.8003119      0.0000000 GHz  (calculated with average atomic masses)

 Point group  C2v 



 ATOMIC COORDINATES

 NR  ATOM    CHARGE       X              Y              Z

   1  SI     14.00    0.000000000    0.000000000   -1.349783279
   2  S      16.00    0.000000000    0.000000000    1.182449728

 Bond lengths in Bohr (Angstrom)

 1-2  2.532233007
     ( 1.340000000)

 NUCLEAR CHARGE:                   30
 NUMBER OF PRIMITIVE AOS:         434
 NUMBER OF SYMMETRY AOS:          324
 NUMBER OF CONTRACTIONS:          262   (   96A1  +   64B1  +   64B2  +   38A2  )
 NUMBER OF INNER CORE ORBITALS:     2   (    2A1  +    0B1  +    0B2  +    0A2  )
 NUMBER OF OUTER CORE ORBITALS:     8   (    4A1  +    2B1  +    2B2  +    0A2  )
 NUMBER OF VALENCE ORBITALS:        8   (    4A1  +    2B1  +    2B2  +    0A2  )


 NUCLEAR REPULSION ENERGY   88.45947406

 EXTRA SYMMETRY OF AOS IN SYMMETRY 1:   1 1 1 1 1 1 1 1 1 1   1 1 1 1 1 1 2 1 2 1   2 1 2 1 2 1 2 1 2 1   2 1 2 1 3 2 1 3 2 1
                                        3 2 2 3 1 2 3 1 1 1   1 1 1 1 1 1 1 1 1 1   1 1 1 1 2 1 2 1 2 1   2 1 2 1 2 1 2 1 2 1
                                        2 1 3 2 1 3 2 1 3 2   2 3 1 2 3 1
 EXTRA SYMMETRY OF AOS IN SYMMETRY 2:   1 1 1 1 1 1 1 1 1 1   1 1 1 2 1 2 1 2 1 2   1 2 1 2 1 2 1 2 3 1   2 3 1 1 1 1 1 1 1 1
                                        1 1 1 1 1 2 1 2 1 2   1 2 1 2 1 2 1 2 1 2   3 1 2 3
 EXTRA SYMMETRY OF AOS IN SYMMETRY 3:   1 1 1 1 1 1 1 1 1 1   1 1 1 2 1 2 1 2 1 2   1 2 1 2 1 2 1 2 3 1   2 3 1 1 1 1 1 1 1 1
                                        1 1 1 1 1 2 1 2 1 2   1 2 1 2 1 2 1 2 1 2   3 1 2 3
 EXTRA SYMMETRY OF AOS IN SYMMETRY 4:   1 1 1 1 1 1 1 1 1 1   2 1 2 1 2 2 1 2 1 1   1 1 1 1 1 1 1 1 1 2   1 2 1 2 2 1 2 1

 Eigenvalues of metric

         1 0.454E-05 0.520E-05 0.875E-05 0.144E-04 0.170E-04 0.609E-04 0.763E-04 0.217E-03
         2 0.749E-05 0.814E-05 0.862E-04 0.460E-03 0.715E-03 0.981E-03 0.388E-02 0.620E-02
         3 0.749E-05 0.814E-05 0.862E-04 0.460E-03 0.715E-03 0.981E-03 0.388E-02 0.620E-02
         4 0.408E-03 0.277E-02 0.101E-01 0.117E-01 0.316E-01 0.417E-01 0.597E-01 0.801E-01


 Contracted 2-electron integrals neglected if value below      1.0D-12
 AO integral compression algorithm  1   Integral accuracy      1.0D-12

     675.807 MB (compressed) written to integral file ( 46.6%)


 NUMBER OF SORTED TWO-ELECTRON INTEGRALS:  150955559.     BUFFER LENGTH:  32768
 NUMBER OF SEGMENTS:  10  SEGMENT LENGTH:   15998976      RECORD LENGTH: 524288

 Memory used in sort:      16.56 MW

 SORT1 READ   181316810. AND WROTE   100603944. INTEGRALS IN    293 RECORDS. CPU TIME:     2.02 SEC, REAL TIME:     2.51 SEC
 SORT2 READ   100603944. AND WROTE   150955559. INTEGRALS IN   2578 RECORDS. CPU TIME:     1.54 SEC, REAL TIME:     1.81 SEC

 FILE SIZES:   FILE 1:   707.5 MBYTE,  FILE 4:  1229.0 MBYTE,   TOTAL:   1936.5 MBYTE

 OPERATOR DM      FOR CENTER  0  COORDINATES:    0.000000    0.000000    0.000000


 **********************************************************************************************************************************
 DATASETS  * FILE   NREC   LENGTH (MB)   RECORD NAMES
[...]
                           IHINT =  0    IFDIA =  0    ISPARO=  1    JKSYM =  0    CPHF  =  0    MP2D  = -1    DKINT =  0
                           NPKEX =  1    DRVK  =  1    HLSTRA=  1    WIGNER=  1    DIIS_C=  1    MAXIT_= 50    MATEL =  0
                           SPDEG =  1    MEMCPH=  0    DISM  =  1    KDCPMA=  5    IKDCP_=  0    IREDTH=  0    USECS =  0
                           IPROCC=  0    I3SAVE=  1    IKDCP =  1    USECI =  0    OLDPAI=  0    IPROCI=  0    KEEPCL=  1
                           DISCON=  0    SHIFTE=  0    DIISIN=  0    MOLCAS=  0    MEM_PT=  0    RECORD=  0    RS2C  =  0
                           KEXT  = -1    CIPT2 =  0    DECP0S=  0    I4EXT = -1    NATCOR=  0    RIMP2 =  0    DDCI  = -1
                           IPOLAR=  0

 Reference symmetry:                   1   Singlet 
 Number of electrons:                 30
 Maximum number of shells:             6
 Maximum number of spin couplings:    42

 Reference space:      240 conf      328 CSFs
 N elec internal:      784 conf     1176 CSFs
 N-1 el internal:     1016 conf     2352 CSFs
 N-2 el internal:     1107 conf     4116 CSFs

 Number of electrons in valence space:                     10
 Maximum number of open shell orbitals in reference space:  6
 Maximum number of open shell orbitals in internal spaces: 10


 Number of core orbitals:          10 (   6   2   2   0 )
 Number of active  orbitals:        8 (   4   2   2   0 )
 Number of external orbitals:     244 (  86  60  60  38 )

 Molecular orbitals read from record     2140.2  Type=MCSCF/NATURAL (state averaged)

 Valence orbitals related to previous ones by unitary transformation. Operators transformed.


 Number of p-space configurations:   8

 Reference wavefunction optimized for reference space (refopt=1)

 State     Reference Energy 
     1      -684.84433736
     2      -684.67497092
     3      -684.54743085
     4      -684.52269036

 Number of blocks in overlap matrix:     8   Smallest eigenvalue:  0.51D-04
 Number of N-2 electron functions:     192
 Number of N-1 electron functions:    2352

 Number of internal configurations:                  328
 Number of singly external configurations:        144816
 Number of doubly external configurations:       1459440
 Total number of contracted configurations:      1604584
 Total number of uncontracted configurations:   30813616

 Diagonal Coupling coefficients finished.               Storage:  228761 words, CPU-Time:      0.08 seconds.
 Energy denominators for pairs finished in 1 passes.    Storage:  376976 words, CPU-time:      0.02 seconds.

  ITER. STATE  ROOT     SQ.NORM     CORR.ENERGY   TOTAL ENERGY   ENERGY CHANGE       DEN1      VAR(S)    VAR(P)      TIME
    1     1     1     1.00000000     0.00000000  -684.84433736    -0.00000000    -0.26790831  0.47D-01  0.59D-01     0.58
    1     2     2     1.00000000     0.00000000  -684.67497092     0.00000000    -0.24671169  0.46D-01  0.53D-01     0.58
    1     3     3     1.00000000     0.00000000  -684.54743085     0.00000000    -0.28970394  0.92D-01  0.66D-01     0.58
    2     1     1     1.09957795    -0.25948487  -685.10382223    -0.25948487    -0.01020708  0.25D-02  0.19D-02    15.15
    2     2     2     1.09673908    -0.24461460  -684.91958552    -0.24461460    -0.00753431  0.17D-02  0.14D-02    15.15
    2     3     3     1.13564137    -0.26804599  -684.81547684    -0.26804599    -0.01249589  0.40D-02  0.25D-02    15.15
    3     1     1     1.10508869    -0.27057646  -685.11491382    -0.01109159    -0.00079167  0.11D-03  0.17D-03    29.83
    3     2     2     1.10192707    -0.25298504  -684.92795596    -0.00837044    -0.00056582  0.11D-03  0.12D-03    29.83
    3     3     3     1.14075694    -0.28104091  -684.82847177    -0.01299492    -0.00133717  0.64D-03  0.26D-03    29.83
    4     1     1     1.10882439    -0.27160200  -685.11593936    -0.00102555    -0.00010021  0.14D-04  0.21D-04    44.53
    4     2     2     1.10533757    -0.25367443  -684.92864535    -0.00068939    -0.00007520  0.18D-04  0.16D-04    44.53
    4     3     3     1.15557909    -0.28286262  -684.83029348    -0.00182171    -0.00035717  0.22D-03  0.57D-04    44.53
    5     1     1     1.10956070    -0.27173528  -685.11607264    -0.00013327    -0.00001582  0.24D-05  0.32D-05    59.37
    5     2     2     1.10598476    -0.25377708  -684.92874800    -0.00010265    -0.00001717  0.40D-05  0.34D-05    59.37
    5     3     3     1.16936973    -0.28344599  -684.83087684    -0.00058337    -0.00016100  0.71D-04  0.27D-04    59.37
    6     1     1     1.10959107    -0.27175477  -685.11609213    -0.00001949    -0.00000252  0.32D-06  0.53D-06    74.24
    6     2     2     1.10593099    -0.25379985  -684.92877077    -0.00002276    -0.00000405  0.67D-06  0.87D-06    74.24
    6     3     3     1.17506405    -0.28366999  -684.83110085    -0.00022400    -0.00006412  0.43D-04  0.92D-05    74.24
    7     1     1     1.10966383    -0.27175796  -685.11609532    -0.00000319    -0.00000052  0.75D-07  0.11D-06    89.10
    7     2     2     1.10603549    -0.25380501  -684.92877593    -0.00000516    -0.00000104  0.22D-06  0.22D-06    89.10
    7     3     3     1.17948030    -0.28375208  -684.83118293    -0.00008208    -0.00002748  0.17D-04  0.36D-05    89.10
    8     1     1     1.10969439    -0.27175860  -685.11609596    -0.00000064    -0.00000011  0.15D-07  0.22D-07   104.01
    8     2     2     1.10606971    -0.25380630  -684.92877723    -0.00000130    -0.00000031  0.61D-07  0.67D-07   104.01
    8     3     3     1.18307595    -0.28378875  -684.83121960    -0.00003667    -0.00001486  0.85D-05  0.20D-05   104.01
    9     1     1     1.10970162    -0.27175873  -685.11609609    -0.00000013    -0.00000002  0.35D-08  0.48D-08   118.91
    9     2     2     1.10607158    -0.25380669  -684.92877761    -0.00000039    -0.00000010  0.19D-07  0.21D-07   118.91
    9     3     3     1.18542630    -0.28380781  -684.83123867    -0.00001907    -0.00000721  0.47D-05  0.92D-06   118.91
   10     1     1     1.10970181    -0.27175873  -685.11609609    -0.00000000    -0.00000002  0.36D-08  0.47D-08   130.35
   10     2     2     1.10608361    -0.25380682  -684.92877774    -0.00000012    -0.00000003  0.59D-08  0.69D-08   130.35
   10     3     3     1.19057917    -0.28382384  -684.83125469    -0.00001603    -0.00000160  0.44D-06  0.22D-06   130.35
   11     1     1     1.10970208    -0.27175873  -685.11609609    -0.00000000    -0.00000002  0.37D-08  0.46D-08   141.65
   11     2     2     1.10609049    -0.25380686  -684.92877778    -0.00000004    -0.00000001  0.20D-08  0.23D-08   141.65
   11     3     3     1.19133553    -0.28382544  -684.83125629    -0.00000160    -0.00000013  0.31D-07  0.31D-07   141.65
   12     1     1     1.10970208    -0.27175873  -685.11609609    -0.00000000    -0.00000002  0.37D-08  0.46D-08   149.52
   12     2     2     1.10609049    -0.25380686  -684.92877778    -0.00000000    -0.00000001  0.20D-08  0.23D-08   149.52
   12     3     3     1.19135320    -0.28382561  -684.83125646    -0.00000017    -0.00000003  0.63D-08  0.91D-08   149.52
   13     1     1     1.10970208    -0.27175873  -685.11609609    -0.00000000    -0.00000002  0.37D-08  0.46D-08   157.48
   13     2     2     1.10609049    -0.25380686  -684.92877778    -0.00000000    -0.00000001  0.20D-08  0.23D-08   157.48
   13     3     3     1.19138294    -0.28382567  -684.83125653    -0.00000006    -0.00000002  0.45D-08  0.31D-08   157.48


 =====================================
 Analysis of CPU times by interactions
 =====================================

       I      S      P

 I   0.1%
 S   0.1%   1.4%
 P   0.5%   6.4%  56.0%

 Initialization:   0.3%
 Other:           35.1%

 Total CPU:      157.5 seconds
 =====================================



 gnormi=  0.90114276  gnorms=  0.03085135  gnormp=  0.06800589  gnorm=  1.00000000
 ecorri= -0.24489342  ecorrs= -0.00838470  ecorrp= -0.01848062  ecorr= -0.27175873

 gnormi=  0.90408517  gnorms=  0.03636795  gnormp=  0.05954688  gnorm=  1.00000000
 ecorri= -0.22946301  ecorrs= -0.00922921  ecorrp= -0.01511463  ecorr= -0.25380686

 gnormi=  0.83936069  gnorms=  0.09549309  gnormp=  0.06514623  gnorm=  1.00000000
 ecorri= -0.23823211  ecorrs= -0.02710737  ecorrp= -0.01848619  ecorr= -0.28382567

 Reference coefficients greater than 0.0500000
 =============================================
 22/\2020          -0.1410463   0.9310815   0.0000000
 22202020           0.9275682   0.1417896   0.0000000
 22002220          -0.0681632  -0.0074024  -0.6369547
 22002022          -0.0681632  -0.0074025   0.6369544
 20202022          -0.0413305  -0.0068820  -0.1027389
 20202220          -0.0413305  -0.0068820   0.1027386
 2/2\20/\          -0.0186492   0.0553604   0.0002688
 2/2\/\20          -0.0186492   0.0553604  -0.0002688

 Coefficients of singly external configurations greater than 0.0500000
 =====================================================================

 22\02020  14.1    -0.0000000  -0.0000001  -0.1631565
 22\02020  17.1    -0.0000000  -0.0000001  -0.1282276
 22\02020  19.1    -0.0000001   0.0000001   0.0851513

 Coefficients of fixed reference functions:
 ==========================================

 State      Coefficients
 1           0.948501    0.035267   -0.000000
 2          -0.036316    0.949816   -0.000000
 3           0.000000    0.000000    0.915368

 Coefficients of rotated reference functions:
 ============================================

 State      Coefficients
 1           0.949156   -0.000499   -0.000000
 2          -0.000499    0.950510   -0.000000
 3          -0.000000   -0.000000    0.915368


 RESULTS FOR STATE 1.1
 =====================

 Coefficient of reference function:   C(0) = 0.94850099 (fixed)   0.94928540 (relaxed)   0.94915629 (rotated)

 Energy contributions of configuration classes

 CLASS          SQ.NORM        ECORR1        ECORR2
 +++++++++++++++++++++++++++++++++++++++++++++++++++
 Internals    0.00027206   -0.00000335   -0.19527772
 Singles      0.03424512   -0.05507365   -0.05800042
 Pairs        0.07548680    0.00000003   -0.01848059
 Total        1.11000399   -0.05507697   -0.27175873
 +++++++++++++++++++++++++++++++++++++++++++++++++++


 Reference energy                    -684.84409687
 Nuclear energy                       107.75972295
 Kinetic energy                       693.00348686
 One electron energy                -1160.23488315
 Two electron energy                  367.35906411
 Virial quotient                       -0.98861854
 Correlation energy                    -0.27199923
 !MRCI STATE 1.1 Energy              -685.116096093190

 Properties without orbital relaxation:

 !MRCI STATE 1.1 Dipole moment          0.00000000     0.00000000     0.39052187
 Dipole moment /Debye                   0.00000000     0.00000000     0.99260759

 Cluster corrected energies          -685.14601709 (Davidson, fixed reference)
 Cluster corrected energies          -685.14593498 (Davidson, relaxed reference)
 Cluster corrected energies          -685.14601709 (Davidson, rotated reference)

 Cluster corrected energies          -685.14166779 (Pople, fixed reference)
 Cluster corrected energies          -685.14159300 (Pople, relaxed reference)
 Cluster corrected energies          -685.14166779 (Pople, rotated reference)



 RESULTS FOR STATE 2.1
 =====================

 Coefficient of reference function:   C(0) = 0.94981584 (fixed)   0.95083393 (relaxed)   0.95050974 (rotated)

 Energy contributions of configuration classes

 CLASS          SQ.NORM        ECORR1        ECORR2
 +++++++++++++++++++++++++++++++++++++++++++++++++++
 Internals    0.00068227   -0.00000335   -0.17342049
 Singles      0.04025369   -0.06203041   -0.06527175
 Pairs        0.06590918    0.00000002   -0.01511461
 Total        1.10684513   -0.06203374   -0.25380686
 +++++++++++++++++++++++++++++++++++++++++++++++++++


 Reference energy                    -684.67521141
 Nuclear energy                       107.75972295
 Kinetic energy                       692.18305352
 One electron energy                -1155.64531648
 Two electron energy                  362.95681576
 Virial quotient                       -0.98951971
 Correlation energy                    -0.25356636
 !MRCI STATE 2.1 Energy              -684.928777776386

 Properties without orbital relaxation:

 !MRCI STATE 2.1 Dipole moment          0.00000000     0.00000000    -1.47078841
 Dipole moment /Debye                   0.00000000     0.00000000    -3.73837125

 Cluster corrected energies          -684.95587011 (Davidson, fixed reference)
 Cluster corrected energies          -684.95567875 (Davidson, relaxed reference)
 Cluster corrected energies          -684.95587011 (Davidson, rotated reference)

 Cluster corrected energies          -684.95188817 (Pople, fixed reference)
 Cluster corrected energies          -684.95171456 (Pople, relaxed reference)
 Cluster corrected energies          -684.95188817 (Pople, rotated reference)



 RESULTS FOR STATE 3.1
 =====================

 Coefficient of reference function:   C(0) = 0.91536760 (fixed)   0.91616630 (relaxed)   0.91536760 (rotated)

 Energy contributions of configuration classes

 CLASS          SQ.NORM        ECORR1        ECORR2
 +++++++++++++++++++++++++++++++++++++++++++++++++++
 Internals    0.00174585   -0.00000001   -0.00041520
 Singles      0.11396746   -0.07742041   -0.09197776
 Pairs        0.07774961   -0.20640525   -0.19143271
 Total        1.19346291   -0.28382567   -0.28382567
 +++++++++++++++++++++++++++++++++++++++++++++++++++


 Reference energy                    -684.54743085
 Nuclear energy                       107.75972295
 Kinetic energy                       691.83599929
 One electron energy                -1157.46956804
 Two electron energy                  364.87858857
 Virial quotient                       -0.98987514
 Correlation energy                    -0.28382567
 !MRCI STATE 3.1 Energy              -684.831256525721

 Properties without orbital relaxation:

 !MRCI STATE 3.1 Dipole moment          0.00000000     0.00000000     0.70324004
 Dipole moment /Debye                   0.00000000     0.00000000     1.78745790

 Cluster corrected energies          -684.88616627 (Davidson, fixed reference)
 Cluster corrected energies          -684.88557592 (Davidson, relaxed reference)
 Cluster corrected energies          -684.88616627 (Davidson, rotated reference)

 Cluster corrected energies          -684.88057780 (Pople, fixed reference)
 Cluster corrected energies          -684.87998756 (Pople, relaxed reference)
 Cluster corrected energies          -684.88057780 (Pople, rotated reference)


 !MRCI trans          <2.1|DMZ|1.1>     0.556119694805 au =     1.413515272944 Debye

 !MRCI trans          <3.1|DMZ|1.1>     0.000000188377 au =     0.000000478807 Debye

 !MRCI trans          <3.1|DMZ|2.1>     0.000000192042 au =     0.000000488121 Debye


 **********************************************************************************************************************************
 DATASETS  * FILE   NREC   LENGTH (MB)   RECORD NAMES
              1      21      604.43       500      700      610      701      900      950      970     1000      129      960   
                                          VAR     GEOM    BASINP    GEOM    SYMINP    ZMAT    AOBASIS   BASIS     P2S    ABASIS    
                                         1100     1400     1410     1200     1210     1080     1600     1650     1300     1700   
                                           S        T        V       H0       H01     AOSYM     SMH    MOLCAS    ERIS     OPER   
                                         1380   
                                         JKOP   

              2       8       18.16       500      610      700     1000      520     2100     2140      701   
                                          VAR    BASINP    GEOM     BASIS   MCVARS     RHF     MCSCF    GEOM   

 PROGRAMS   *        TOTAL        CI     MULTI       INT        CI     MULTI       INT        CI     MULTI       INT        CI
 CPU TIMES  *      9836.04    158.04      6.60     35.46    158.06      5.12     35.44    157.98      5.02     35.47    157.55
 REAL TIME  *     10184.96 SEC
 DISK USED  *         1.83 GB
 **********************************************************************************************************************************
 SETTING E1(51)         =      -685.11609609  AU                              
 SETTING E2(51)         =      -684.92877778  AU                              
 SETTING E3(51)         =      -684.83125653  AU                              


      R          E1             E2             E3
    1.350   -686.2785435   -686.0385747   -685.9620184
    1.345   -686.2644169   -686.0251619   -685.9462686
    1.340   -686.2499944   -686.0114636   -685.9302260
    1.335   -686.2352716   -685.9974755   -685.9138876
    1.330   -686.2202437   -685.9831930   -685.8972508
    1.325   -686.2049059   -685.9686118   -685.8803135
    1.320   -686.1892534   -685.9537273   -685.8630741
    1.315   -686.1732814   -685.9385350   -685.8455323
    1.310   -686.1569851   -685.9230303   -685.8276885
    1.305   -686.1403594   -685.9072086   -685.8095452
    1.300   -686.1233994   -685.8910653   -685.7911072
    1.295   -686.1060999   -685.8745957   -685.7723824
    1.290   -686.0884559   -685.8577950   -685.7533838
    1.285   -686.0704618   -685.8406584   -685.7341308
    1.280   -686.0521122   -685.8231812   -685.7146536
    1.275   -686.0334010   -685.8053586   -685.6949967
    1.270   -686.0143218   -685.7871860   -685.6752269
    1.265   -685.9944830   -685.7685147   -685.6587770
    1.260   -685.9746700   -685.7496316   -685.6391769
    1.255   -685.9544787   -685.7303857   -685.6195519
    1.250   -685.9339048   -685.7107727   -685.5998500
    1.245   -685.9129440   -685.6907880   -685.5799791
    1.240   -685.8915924   -685.6704273   -685.5598404
    1.235   -685.8698455   -685.6496861   -685.5393602
    1.230   -685.8476988   -685.6285598   -685.5184994
    1.225   -685.8251474   -685.6070438   -685.4972448
    1.220   -685.8021866   -685.5851332   -685.4755955
    1.215   -685.7788566   -685.5632598   -685.4528471
    1.210   -685.7550555   -685.5405732   -685.4304461
    1.205   -685.7308316   -685.5174755   -685.4076592
    1.200   -685.7061768   -685.4939625   -685.3844983
    1.195   -685.6804742   -685.4697903   -685.3615411
    1.190   -685.6549434   -685.4453995   -685.3375201
    1.185   -685.6289749   -685.4205829   -685.3131030
    1.180   -685.6025636   -685.3953354   -685.2882834
    1.175   -685.5757047   -685.3696525   -685.2630548
    1.170   -685.5483936   -685.3435291   -685.2374110
    1.165   -685.5206257   -685.3169606   -685.2113459
    1.160   -685.4923968   -685.2899421   -685.1848532
    1.155   -685.4637024   -685.2624688   -685.1579268
    1.150   -685.4345383   -685.2345358   -685.1305603
    1.145   -685.4049001   -685.2061381   -685.1027476
    1.140   -685.3747835   -685.1772708   -685.0744823
    1.135   -685.3441843   -685.1479287   -685.0457578
    1.130   -685.3130980   -685.1181066   -685.0165676
    1.125   -685.2815202   -685.0877989   -684.9869050
    1.120   -685.2494465   -685.0570003   -684.9567631
    1.115   -685.2168720   -685.0257050   -684.9261347
    1.110   -685.1837921   -684.9939069   -684.8950126
    1.105   -685.1502019   -684.9616000   -684.8633892
    1.100   -685.1160961   -684.9287778   -684.8312565
                                                  

 CI/aug-cc-pV5Z energy=   -684.831256525721

              CI           MULTI              CI           MULTI              CI           MULTI              CI           MULTI
   -684.83125653   -684.52269036   -684.86338916   -684.55471980   -684.89501261   -684.58623617   -684.92613472   -684.61724769
 **********************************************************************************************************************************
 Molpro calculation terminated
