
 Working directory              : /tmp/molpro/molpro.lpDjPkGI5y/
 Global scratch directory       : /tmp/molpro/molpro.lpDjPkGI5y/
 Wavefunction directory         : /home/molpro/wfu/
 Main file repository           : /tmp/molpro/molpro.lpDjPkGI5y/

 id        : gskim

 Nodes                nprocs
 localhost.localdomain    1
 GA implementation: MPI file
 GA implementation (serial work in mppx): MPI file

 Using customized tuning parameters: mindgm=1; mindgv=20; mindgc=4; mindgr=1; noblas=0; minvec=7
 default implementation of scratch files=df  


 Variables initialized (1009), CPU time= 0.00 sec
 ***,EAM  Calculations   for SiS  from 3Pix to 3Piy
 file,2,sis-sp-3pix-3piy-lz.wfu
 memory,1000,M
 gexpec,Lx,Ly,Lz
 geometry={angstrom;
 Si
 S,Si,r(i)}
 basis=av5z
 r=[1.50]
 do i=1,#r
 int;
 
 Text,EAM  calculation of SiS 3pix-3piy using  av5z
 
 {multi;occ,10,4,4;close,6,2,2;start,2140.2;orbital,2140.2;natorb,,ci;wf,30,2,2;state,3;wf,30,3,2;state,3;maxiter,40;}
 
 {ci;occ,10,4,4;core,6,2,2;wf,30,3,2;state,2;orbital,2140.2;maxiter,250;option,maxiti=250;option,nstati=3;save,8460.2;}
 
 {ci;occ,10,4,4;core,6,2,2;wf,30,2,2;state,2;orbital,2140.2;maxiter,250;option,maxiti=250;option,nstati=3;save,7460.2;}
 
 {ci;trans,7460.2,8460.2;}
 
 enddo
 
 Commands initialized (810), CPU time= 0.01 sec, 661 directives.
 Default parameters read. Elapsed time= 0.05 sec

 Checking input...
 Passed
1


                                         ***  PROGRAM SYSTEM MOLPRO  ***
                                       Copyright, TTI GmbH Stuttgart, 2015
                                    Version 2021.2 linked Jul 16 2021 07:37:36


 **********************************************************************************************************************************
 LABEL *   EAM  Calculations   for SiS  from 3Pix to 3Piy                                
  64 bit serial version                                                                  DATE: 21-Oct-24          TIME: 16:09:00  
 **********************************************************************************************************************************

 SHA1:             dade016a989826d9d859d6207854b99675d53db3
 **********************************************************************************************************************************

 Memory per process:      1000 MW
 Total memory per node:   1000 MW

 GA preallocation disabled
 GA check disabled

 Variable memory set to 1000.0 MW



 Permanent file  2  sis-sp-3pix-3piy-lz.wfu          assigned.  Implementation=df    Size= 17.78 MB


 PROGRAM * RESTART 


 Reading variables from file 2

 _FNUC           =      0.00000000
 _BASIS          =    AV5Z
 _NELEC          =     30.00000000
 _PROGRAM        =    CI
 _DMX(2)         =      0.00000000
 _DMY(2)         =      0.00000000
 _DMZ(1:2)       =     -0.29740502     0.98391662
 _DMX_SCF        =      0.00000000
 _DMY_SCF        =      0.00000000
 _DMZ_SCF        =      0.61548593
 _HOMO           =      4.30000000
 _EHOMO          =     -0.17278084
 _LUMO           =      4.20000000
 _ELUMO          =      0.01102173
 _ENERGD(1:2)    =   -686.47314097  -686.30580664
 _ENERGD0(1:2)   =   -686.47314097  -686.30580664
 _ENERGD1(1:2)   =   -686.47392147  -686.30948709
 _ENERGD2(1:2)   =   -686.47392147  -686.30948709
 _ENERGD3(1:2)   =   -686.47314097  -686.30580664
 _ENERGD4(1:2)   =   -686.47392147  -686.30948709
 _ENERGP(1:2)    =   -686.46703594  -686.29875643
 _ENERGP0(1:2)   =   -686.46703594  -686.29875643
 _ENERGP1(1:2)   =   -686.46768944  -686.30191721
 _ENERGP2(1:2)   =   -686.46768944  -686.30191721
 _ENERGP3(1:2)   =   -686.46703594  -686.29875643
 _ENERGP4(1:2)   =   -686.46768944  -686.30191721
 _ENERGR(1:2)    =   -686.18385670  -686.00946019
 _ENERGRR(1:2)   =   -686.18379733  -686.00951956
 _ENERGY(1:2)    =   -686.44365254  -686.27026105
 _ENERGY_METHOD  =    CI
 _ENERGY_BASIS   =    aug-cc-pV5Z
 _ENERGY_AVRG    =   -686.06621817
 _ENUC           =     79.02379683
 _IPROC_MPP      =      0.00000000
 _IPROC_MPPX     =      0.00000000
 _ORBITAL        =   2140.20000000
 _ROOT(1:2)      =      1.00000000     2.00000000
 _STATUS         =      1.00000000
 _TROV           =      0.00000000
 _LASTORB        =    MCSCF
 _OUTPUT         =    /home/molpro/SiS-3oct2024/dir-4/sis150-3pi2mc.out
 _PGROUP         =    C2v 
 _TIME           =    13:24:58
 _C0(1:2)        =      0.89808509     0.88002990
 _C0R(1:2)       =      0.89566904     0.86923239
 _DMX_CC(1:6)    =     -0.00000000    -0.00000000    -0.00000000    -0.00000000    -0.00000000    -0.00000000
 _DMY_CC(1:6)    =     -0.00000000    -0.00000000    -0.00000000    -0.00000000    -0.00000000    -0.00000000
 _DMZ_CC(1:6)    =      1.85800772     1.85800772     1.85800772     1.85800772     1.85800772     1.85800772
 _DMX_NUC(1:6)   =      0.00000000     0.00000000     0.00000000     0.00000000     0.00000000     0.00000000
 _DMY_NUC(1:6)   =      0.00000000     0.00000000     0.00000000     0.00000000     0.00000000     0.00000000
 _DMZ_NUC(1:6)   =      0.02488404     0.02488404     0.02488404     0.02488404     0.02488404     0.02488404
 _SYM_CATION     =      4.00000000
 R               =      1.50000000
 _TRDMX          =      0.00000000
 _TRDMY          =      0.00000000
 _TRDMZ          =     -0.55684127

 Geometry written to block  1 of record 700


 **********************************************************************************************************************************
 DATASETS  * FILE   NREC   LENGTH (MB)   RECORD NAMES
              2       7       17.78       500      610      700     1000      520     2100     2140   
                                          VAR    BASINP    GEOM     BASIS   MCVARS     RHF     MCSCF   

 PROGRAMS   *        TOTAL   RESTART
 CPU TIMES  *         0.10      0.00
 REAL TIME  *         0.13 SEC
 DISK USED  *        29.25 MB
 **********************************************************************************************************************************
 namx(1:10)LX        
 namx(1:10)LY        
 namx(1:10)LZ        
 SETTING BASIS          =    AV5Z
 SETTING R              =         1.50000000                                  

 DO I                   =         1.00000000   


 Using spherical harmonics

 Library entry SI     S aug-cc-pV5Z          selected for orbital group  1
 Library entry SI     P aug-cc-pV5Z          selected for orbital group  1
 Library entry SI     D aug-cc-pV5Z          selected for orbital group  1
 Library entry SI     F aug-cc-pV5Z          selected for orbital group  1
 Library entry SI     G aug-cc-pV5Z          selected for orbital group  1
 Library entry SI     H aug-cc-pV5Z          selected for orbital group  1
 Library entry S      S aug-cc-pV5Z          selected for orbital group  2
 Library entry S      P aug-cc-pV5Z          selected for orbital group  2
 Library entry S      D aug-cc-pV5Z          selected for orbital group  2
 Library entry S      F aug-cc-pV5Z          selected for orbital group  2
 Library entry S      G aug-cc-pV5Z          selected for orbital group  2
 Library entry S      H aug-cc-pV5Z          selected for orbital group  2


 PROGRAM * SEWARD (Integral evaluation for generally contracted gaussian basis sets)     Author: Roland Lindh, 1990

 Geometry written to block  1 of record 701

 Orientation using atomic masses  
 Molecule type: Linear
 Symmetry elements: X,Y
 Rotational constants:      15.0034845     15.0034845      0.0000000 GHz  (calculated with average atomic masses)

 Point group  C2v 



 ATOMIC COORDINATES

 NR  ATOM    CHARGE       X              Y              Z

   1  SI     14.00    0.000000000    0.000000000   -1.510951432
   2  S      16.00    0.000000000    0.000000000    1.323637755

 Bond lengths in Bohr (Angstrom)

 1-2  2.834589187
     ( 1.500000000)

 NUCLEAR CHARGE:                   30
 NUMBER OF PRIMITIVE AOS:         434
 NUMBER OF SYMMETRY AOS:          324
 NUMBER OF CONTRACTIONS:          262   (   96A1  +   64B1  +   64B2  +   38A2  )
 NUMBER OF INNER CORE ORBITALS:     2   (    2A1  +    0B1  +    0B2  +    0A2  )
 NUMBER OF OUTER CORE ORBITALS:     8   (    4A1  +    2B1  +    2B2  +    0A2  )
 NUMBER OF VALENCE ORBITALS:        8   (    4A1  +    2B1  +    2B2  +    0A2  )


 NUCLEAR REPULSION ENERGY   79.02379683

 EXTRA SYMMETRY OF AOS IN SYMMETRY 1:   1 1 1 1 1 1 1 1 1 1   1 1 1 1 1 1 2 1 2 1   2 1 2 1 2 1 2 1 2 1   2 1 2 1 3 2 1 3 2 1
                                        3 2 2 3 1 2 3 1 1 1   1 1 1 1 1 1 1 1 1 1   1 1 1 1 2 1 2 1 2 1   2 1 2 1 2 1 2 1 2 1
                                        2 1 3 2 1 3 2 1 3 2   2 3 1 2 3 1
 EXTRA SYMMETRY OF AOS IN SYMMETRY 2:   1 1 1 1 1 1 1 1 1 1   1 1 1 2 1 2 1 2 1 2   1 2 1 2 1 2 1 2 3 1   2 3 1 1 1 1 1 1 1 1
                                        1 1 1 1 1 2 1 2 1 2   1 2 1 2 1 2 1 2 1 2   3 1 2 3
 EXTRA SYMMETRY OF AOS IN SYMMETRY 3:   1 1 1 1 1 1 1 1 1 1   1 1 1 2 1 2 1 2 1 2   1 2 1 2 1 2 1 2 3 1   2 3 1 1 1 1 1 1 1 1
                                        1 1 1 1 1 2 1 2 1 2   1 2 1 2 1 2 1 2 1 2   3 1 2 3
 EXTRA SYMMETRY OF AOS IN SYMMETRY 4:   1 1 1 1 1 1 1 1 1 1   2 1 2 1 2 2 1 2 1 1   1 1 1 1 1 1 1 1 1 2   1 2 1 2 2 1 2 1

 Eigenvalues of metric

         1 0.510E-05 0.628E-05 0.116E-04 0.167E-04 0.207E-04 0.868E-04 0.108E-03 0.297E-03
         2 0.790E-05 0.860E-05 0.116E-03 0.806E-03 0.998E-03 0.166E-02 0.501E-02 0.123E-01
         3 0.790E-05 0.860E-05 0.116E-03 0.806E-03 0.998E-03 0.166E-02 0.501E-02 0.123E-01
         4 0.598E-03 0.382E-02 0.140E-01 0.203E-01 0.459E-01 0.535E-01 0.617E-01 0.838E-01


 Contracted 2-electron integrals neglected if value below      1.0D-12
 AO integral compression algorithm  1   Integral accuracy      1.0D-12

     667.156 MB (compressed) written to integral file ( 46.0%)


 NUMBER OF SORTED TWO-ELECTRON INTEGRALS:  150955559.     BUFFER LENGTH:  32768
 NUMBER OF SEGMENTS:  10  SEGMENT LENGTH:   15998976      RECORD LENGTH: 524288

 Memory used in sort:      16.56 MW

 SORT1 READ   181316810. AND WROTE   100603426. INTEGRALS IN    293 RECORDS. CPU TIME:     2.01 SEC, REAL TIME:     2.52 SEC
 SORT2 READ   100603426. AND WROTE   150955559. INTEGRALS IN   2545 RECORDS. CPU TIME:     1.51 SEC, REAL TIME:     1.80 SEC

 FILE SIZES:   FILE 1:   698.8 MBYTE,  FILE 4:  1229.0 MBYTE,   TOTAL:   1927.8 MBYTE

 OPERATOR DM      FOR CENTER  0  COORDINATES:    0.000000    0.000000    0.000000
 OPERATOR LOP     FOR CENTER  0  COORDINATES:    0.000000    0.000000    0.000000
 OPERATOR LOP     FOR CENTER  0  COORDINATES:    0.000000    0.000000    0.000000
 OPERATOR LOP     FOR CENTER  0  COORDINATES:    0.000000    0.000000    0.000000


 **********************************************************************************************************************************
 DATASETS  * FILE   NREC   LENGTH (MB)   RECORD NAMES
              1      20      549.93       500      700      610      701      900      950      970     1000      129      960   
                                          VAR     GEOM    BASINP    GEOM    SYMINP    ZMAT    AOBASIS   BASIS     P2S    ABASIS    
                                         1100     1400     1410     1200     1210     1080     1600     1650     1300     1700   
                                           S        T        V       H0       H01     AOSYM     SMH    MOLCAS    ERIS     OPER   

              2       8       18.53       500      610      700     1000      520     2100     2140      701   
                                          VAR    BASINP    GEOM     BASIS   MCVARS     RHF     MCSCF    GEOM   

 PROGRAMS   *        TOTAL       INT   RESTART
 CPU TIMES  *        36.01     35.91      0.00
 REAL TIME  *        37.32 SEC
 DISK USED  *         1.81 GB
 **********************************************************************************************************************************

 PROGRAM * MULTI (Direct Multiconfiguration SCF)       Authors: P.J. Knowles, H.-J. Werner (1984)
                                                                D.A. Kreplin, P.J. Knowles, H.-J. Werner (2019)

 Number of closed-shell orbitals:  10 (   6   2   2   0 )
 Number of active  orbitals:        8 (   4   2   2   0 )
 Number of external orbitals:     244 (  86  60  60  38 )

 State symmetry 1

 Number of active electrons:  10    Spin symmetry=Triplet   Space symmetry=2
 Number of states:             3
 Number of CSFs:             384   (496 determinants, 1960 intermediate states)

 State symmetry 2

 Number of active electrons:  10    Spin symmetry=Triplet   Space symmetry=3
 Number of states:             3
 Number of CSFs:             384   (496 determinants, 1960 intermediate states)

 Molecular orbitals read from record     2140.2  Type=MCSCF/NATURAL (state averaged)

 EXTRA SYMMETRY OF MOS IN SYMMETRY 1:   1 1 1 1 1 1 1 1 1 1   1 1 1 2 1 1 1 2 2 1   1 1 2 1 1 2 1 2 3 1   1 2 1 2 1 2 1 3 1 2
                                        1 2 1 1 2 1 2 1 3 2   3 1 2 1 1 1 3 2 2 1   3 1 2 2 1 1 1 2 1 2   3 3 1 2 1 1 2 1 2 1
                                        3 1 3 2 1 2 2 1 1 1   2 1 1 1 1 1
 EXTRA SYMMETRY OF MOS IN SYMMETRY 2:   1 1 1 1 1 1 1 1 2 1   1 1 1 2 1 1 2 1 2 1   1 1 2 1 2 1 1 2 1 3   1 2 1 2 1 2 3 1 1 2
                                        1 2 2 1 1 1 3 2 1 2   1 1 2 1 1 3 2 1 2 1   1 1 1 1
 EXTRA SYMMETRY OF MOS IN SYMMETRY 3:   1 1 1 1 1 1 1 1 2 1   1 1 1 2 1 1 2 1 2 1   1 1 2 1 2 1 1 2 1 3   1 2 1 2 1 2 3 1 1 2
                                        1 2 2 1 1 1 3 2 1 2   1 1 2 1 1 3 2 1 2 1   1 1 1 1
 EXTRA SYMMETRY OF MOS IN SYMMETRY 4:   1 1 1 1 1 1 2 1 1 1   2 1 1 1 1 2 1 2 1 2   1 1 2 1 1 1 1 2 2 1   1 1 2 2 1 1 1 1

 Wavefunction dump at record             2140.2

 Convergence thresholds  0.10E-04 (gradient)  0.10E-05 (energy)

 Weight factors for state symmetry  1:    0.16667   0.16667   0.16667
 Weight factors for state symmetry  2:    0.16667   0.16667   0.16667
 
 Number of orbital rotations:  1372  ( 32 closed/active, 756 closed/virtual, 0 active/active, 584 active/virtual )
 Total number of variables:    4348
 
  Second-order MCSCF: L-BFGS accelerated
 
 ITER  MIC  NCI  NEG     ENERGY(VAR)    ENERGY(PROJ) ENERGY CHANGE       GRAD(0)  GRAD(ORB)   GRAD(CI)      STEP      TIME
   1    8   32    0   -686.06621817    -686.06621817   -0.00000000    0.00001940 0.00000000 0.00000002  0.20E-07      1.41

 CONVERGENCE REACHED!  Final gradient:    0.00000000 ( 0.34E-08)
                       Final energy:   -686.06621817
 
 Results for state 1.2
 =====================
 !MCSCF STATE 1.2 Energy                      -686.183856700041
 Nuclear energy                                 79.02379683
 Kinetic energy                                688.79028845
 One electron energy                         -1108.41334938
 Two electron energy                           343.20569585
 Virial ratio                                    1.99621593
 
 !MCSCF STATE 1.2 Dipole moment                  0.00000000     0.00000000    -0.34985660
 Dipole moment /Debye                            0.00000000     0.00000000    -0.88924677
 
 Results for state 2.2
 =====================
 !MCSCF STATE 2.2 Energy                      -686.009460191291
 Nuclear energy                                 79.02379683
 Kinetic energy                                688.35251012
 One electron energy                         -1106.00733817
 Two electron energy                           340.97408115
 Virial ratio                                    1.99659615
 
 !MCSCF STATE 2.2 Dipole moment                  0.00000000     0.00000000     1.08639337
 Dipole moment /Debye                            0.00000000     0.00000000     2.76133651
 
 Results for state 3.2
 =====================
 !MCSCF STATE 3.2 Energy                      -686.005337615351
 Nuclear energy                                 79.02379683
 Kinetic energy                                688.18731980
 One electron energy                         -1104.03261830
 Two electron energy                           339.00348386
 Virial ratio                                    1.99682938
 
 !MCSCF STATE 3.2 Dipole moment                  0.00000000     0.00000000    -0.06924157
 Dipole moment /Debye                            0.00000000     0.00000000    -0.17599453
 
 Results for state 1.3
 =====================
 !MCSCF STATE 1.3 Energy                      -686.183856700041
 Nuclear energy                                 79.02379683
 Kinetic energy                                688.79028845
 One electron energy                         -1108.41334938
 Two electron energy                           343.20569585
 Virial ratio                                    1.99621593
 
 !MCSCF STATE 1.3 Dipole moment                  0.00000000     0.00000000    -0.34985660
 Dipole moment /Debye                            0.00000000     0.00000000    -0.88924677
 
 Results for state 2.3
 =====================
 !MCSCF STATE 2.3 Energy                      -686.009460191291
 Nuclear energy                                 79.02379683
 Kinetic energy                                688.35251012
 One electron energy                         -1106.00733817
 Two electron energy                           340.97408115
 Virial ratio                                    1.99659615
 
 !MCSCF STATE 2.3 Dipole moment                  0.00000000     0.00000000     1.08639337
 Dipole moment /Debye                            0.00000000     0.00000000     2.76133651
 
 Results for state 3.3
 =====================
 !MCSCF STATE 3.3 Energy                      -686.005337615351
 Nuclear energy                                 79.02379683
 Kinetic energy                                688.18731980
 One electron energy                         -1104.03261830
 Two electron energy                           339.00348386
 Virial ratio                                    1.99682938
 
 !MCSCF STATE 3.3 Dipole moment                  0.00000000     0.00000000    -0.06924157
 Dipole moment /Debye                            0.00000000     0.00000000    -0.17599453
 
 State-averaged charge density matrix saved on record 2140.2 (density set 1)
 
 Expectation values: (only non-zero values are shown)
 
 !MCSCF expec                       <1.2|DMZ|1.2>    -0.349856596795 au =    -0.889246771028 Debye
 !MCSCF expec                       <2.2|DMZ|2.2>     1.086393368100 au =     2.761336511870 Debye
 !MCSCF expec                       <3.2|DMZ|3.2>    -0.069241574387 au =    -0.175994527497 Debye
 !MCSCF expec                       <1.3|DMZ|1.3>    -0.349856596795 au =    -0.889246771028 Debye
 !MCSCF expec                       <2.3|DMZ|2.3>     1.086393368109 au =     2.761336511891 Debye
 !MCSCF expec                       <3.3|DMZ|3.3>    -0.069241574396 au =    -0.175994527518 Debye
 
 Transition values: (only non-zero values with the ground state are shown)
 
 !MCSCF trans                       <1.2|DMZ|2.2>    -0.604208321169 au =    -1.535744369405 Debye
 !MCSCF trans                       <1.2|DMZ|3.2>     0.313525952070 au =     0.796903482928 Debye
 
 !MCSCF trans                        <1.2|LZ|1.3>    -1.000000000000i
 
 
 Natural orbital dump (state averaged) at molpro section 2140.2 (Orbital set 2)
 
 Reoptimze the CI vectors with natural orbitals 
 
 CI Coefficients of symmetry 2
 =============================
 
 22a0 2a 20      0.96987152     -0.06515387      0.02209935
 222a a0 20      0.00796271      0.43026680      0.87429550
 2a20 2a 20      0.00334717      0.79785770     -0.38908713
 22a0 2a ba     -0.14373609     -0.30020692      0.17133906
 22b0 2a aa      0.05313503      0.13551189     -0.07451885
 2a00 2a 22      0.04231651     -0.11006557      0.05378062
 220a 2a 20      0.04798675      0.10345007      0.04448329
 220a a2 20      0.00047597     -0.05086101     -0.09561310
 22a0 2a ab      0.06505440      0.08880598     -0.04965889
 220a a0 22      0.00003012     -0.04212414     -0.08735843
 2a20 2a ba     -0.08029865      0.00180387      0.00423812
 22a0 2b aa      0.02554667      0.07588905     -0.04716132
 2a20 a2 20     -0.04277323      0.06514882     -0.04263255
 22a0 2a 02     -0.06466575     -0.03358779      0.01928642
 
 Energy:      -686.18385670   -686.00946019   -686.00533762
 
 
 CI Coefficients of symmetry 3
 =============================
 
 22a0 20 2a      0.96987152     -0.06515387      0.02209935
 222a 20 a0      0.00796271      0.43026680      0.87429550
 2a20 20 2a      0.00334717      0.79785770     -0.38908713
 22a0 ba 2a     -0.14373609     -0.30020692      0.17133906
 22b0 aa 2a      0.05313503      0.13551189     -0.07451885
 2a00 22 2a      0.04231651     -0.11006557      0.05378062
 220a 20 2a      0.04798675      0.10345007      0.04448329
 220a 20 a2      0.00047597     -0.05086101     -0.09561310
 22a0 ab 2a      0.06505440      0.08880598     -0.04965889
 220a 22 a0      0.00003012     -0.04212414     -0.08735843
 2a20 ba 2a     -0.08029865      0.00180387      0.00423812
 22a0 aa 2b      0.02554667      0.07588905     -0.04716132
 2a20 20 a2     -0.04277323      0.06514882     -0.04263255
 22a0 02 2a     -0.06466575     -0.03358779      0.01928642
 
 Energy:      -686.18385670   -686.00946019   -686.00533762
 


 **********************************************************************************************************************************
 DATASETS  * FILE   NREC   LENGTH (MB)   RECORD NAMES
              1      21      585.24       500      700      610      701      900      950      970     1000      129      960   
                                          VAR     GEOM    BASINP    GEOM    SYMINP    ZMAT    AOBASIS   BASIS     P2S    ABASIS    
                                         1100     1400     1410     1200     1210     1080     1600     1650     1300     1700   
                                           S        T        V       H0       H01     AOSYM     SMH    MOLCAS    ERIS     OPER   
                                         1380   
                                         JKOP   

              2       8       18.53       500      610      700     1000      520     2100     2140      701   
                                          VAR    BASINP    GEOM     BASIS   MCVARS     RHF     MCSCF    GEOM   

 PROGRAMS   *        TOTAL     MULTI       INT   RESTART
 CPU TIMES  *        38.43      2.42     35.91      0.00
 REAL TIME  *        40.03 SEC
 DISK USED  *         1.81 GB
 **********************************************************************************************************************************


 PROGRAM * CI (Multireference internally contracted CI)     Authors: H.-J. Werner, P.J. Knowles, 1987


 Convergence thresholds:  THRVAR = 1.00D-08  THRDEN = 1.00D-06

 Number of optimized states: 2  Roots:    1   2
 Number of reference states: 2  Roots:    1   2

 Program parameters:       NSTATE=  2    NSTATI=  3    NSTATR=  2    NCEPA = -1    NOKOP =  0    ITRDM =  0    ITRANS=  0
                           IDIP  =200    MAXIT =250    MAXITI=250    MAXDAV=  6    MAXVI =  9    NOSING=  0    NOPAIR=  0
                           MXSHRF=  5    IKCPS =  0    IOPTGM=  2    IOPTOR=  0    REFOPT=  1    IAVDEN=  0    IDELCG=  1
                           IREST =  0    NATORB=  0    IPUNRF=  0    ISEP  =  0    OLDDEN=  0    NSTPRI=  1    GPSFLI= -1
                           CLUSTE=  0    CLOSED=  1    ILSTYP=  0    ITRLS =  0    ICCSD =  0    LOCAL =  0    IBASO =  0
                           MP    =  0    ITEDIS=  2    INCDIS=  1    MAXDIS=  6    ITYDIS=  1    BRUECK=  0    IBRSTR=  3
                           INCBRK=  1    TRIPLE=  0    ICCTYP=  2    IHPPD =  0    ICCNEW=  0    I3EXT = -1    IDEB  =  0
                           IDLEIG=  1    IDFTYP=  1    IMP3  =  0    IPROCS=  0    NOINT =  0    NOREF =  1    IMP2G =  0
                           IHINT =  0    IFDIA =  0    ISPARO=  1    JKSYM =  0    CPHF  =  0    MP2D  = -1    DKINT =  0
                           NPKEX =  1    DRVK  =  1    HLSTRA=  1    WIGNER=  1    DIIS_C=  1    MAXIT_= 50    MATEL =  0
                           SPDEG =  1    MEMCPH=  0    DISM  =  1    KDCPMA=  5    IKDCP_=  0    IREDTH=  0    USECS =  0
                           IPROCC=  0    I3SAVE=  1    IKDCP =  1    USECI =  0    OLDPAI=  0    IPROCI=  0    KEEPCL=  1
                           DISCON=  0    SHIFTE=  0    DIISIN=  0    MOLCAS=  0    MEM_PT=  0    RECORD=  0    RS2C  =  0
                           KEXT  = -1    CIPT2 =  0    DECP0S=  0    I4EXT = -1    NATCOR=  0    RIMP2 =  0    DDCI  = -1
                           IPOLAR=  0

 Reference symmetry:                   3   Triplet 
 Number of electrons:                 30
 Maximum number of shells:             5
 Maximum number of spin couplings:    90

 Reference space:      192 conf      384 CSFs
 N elec internal:      728 conf     1512 CSFs
 N-1 el internal:     1016 conf     3696 CSFs
 N-2 el internal:     1016 conf     6857 CSFs

 Number of electrons in valence space:                     10
 Maximum number of open shell orbitals in reference space:  6
 Maximum number of open shell orbitals in internal spaces: 10


 Number of core orbitals:          10 (   6   2   2   0 )
 Number of active  orbitals:        8 (   4   2   2   0 )
 Number of external orbitals:     244 (  86  60  60  38 )

 Molecular orbitals read from record     2140.2  Type=MCSCF/NATURAL (state averaged)

 Valence orbitals related to previous ones by unitary transformation. Operators transformed.


 Number of p-space configurations:  12

 Reference wavefunction optimized for reference space (refopt=1)

 State     Reference Energy 
     1      -686.18385670
     2      -686.00946019
     3      -686.00533762

 Number of blocks in overlap matrix:     8   Smallest eigenvalue:  0.26D-02
 Number of N-2 electron functions:     128
 Number of N-1 electron functions:    3696

 Number of internal configurations:                  384
 Number of singly external configurations:        225456
 Number of doubly external configurations:        972960
 Total number of contracted configurations:      1198800
 Total number of uncontracted configurations:   51278176

 Diagonal Coupling coefficients finished.               Storage:  296869 words, CPU-Time:      0.05 seconds.
 Energy denominators for pairs finished in 1 passes.    Storage:  451087 words, CPU-time:      0.02 seconds.

  ITER. STATE  ROOT     SQ.NORM     CORR.ENERGY   TOTAL ENERGY   ENERGY CHANGE       DEN1      VAR(S)    VAR(P)      TIME
    1     1     1     1.00000000     0.00000000  -686.18385670     0.00000000    -0.27579047  0.61D-01  0.70D-01     0.49
    1     2     2     1.00000000     0.00000000  -686.00946019     0.00000000    -0.27190313  0.70D-01  0.70D-01     0.49
    2     1     1     1.10710789    -0.25021009  -686.43406679    -0.25021009    -0.00892718  0.25D-02  0.18D-02     7.31
    2     2     2     1.11866339    -0.25123202  -686.26069221    -0.25123202    -0.00780991  0.22D-02  0.16D-02     7.31
    3     1     1     1.11023771    -0.25911051  -686.44296721    -0.00890042    -0.00058384  0.14D-03  0.12D-03    14.19
    3     2     2     1.12534540    -0.25971709  -686.26917728    -0.00848508    -0.00069371  0.31D-03  0.11D-03    14.19
    4     1     1     1.11274938    -0.25973633  -686.44359303    -0.00062582    -0.00004823  0.12D-04  0.98D-05    21.11
    4     2     2     1.13187820    -0.26058965  -686.27004984    -0.00087256    -0.00012378  0.54D-04  0.18D-04    21.11
    5     1     1     1.11340050    -0.25979000  -686.44364670    -0.00005367    -0.00000464  0.11D-05  0.91D-06    28.04
    5     2     2     1.13481799    -0.26075646  -686.27021665    -0.00016681    -0.00002892  0.13D-04  0.39D-05    28.04
    6     1     1     1.11345924    -0.25979526  -686.44365196    -0.00000526    -0.00000047  0.12D-06  0.92D-07    34.96
    6     2     2     1.13543649    -0.26079083  -686.27025103    -0.00003438    -0.00000609  0.35D-05  0.69D-06    34.96
    7     1     1     1.11347397    -0.25979577  -686.44365247    -0.00000051    -0.00000006  0.21D-07  0.11D-07    41.88
    7     2     2     1.13583424    -0.26079810  -686.27025829    -0.00000727    -0.00000157  0.86D-06  0.19D-06    41.88
    8     1     1     1.11348122    -0.25979584  -686.44365254    -0.00000007    -0.00000001  0.25D-08  0.17D-08    48.79
    8     2     2     1.13608723    -0.26080005  -686.27026024    -0.00000195    -0.00000050  0.31D-06  0.47D-07    48.79
    9     1     1     1.11348031    -0.25979584  -686.44365254    -0.00000000    -0.00000001  0.22D-08  0.17D-08    53.59
    9     2     2     1.13631759    -0.26080079  -686.27026098    -0.00000074    -0.00000007  0.27D-07  0.10D-07    53.59
   10     1     1     1.11348023    -0.25979584  -686.44365254    -0.00000000    -0.00000001  0.22D-08  0.16D-08    58.41
   10     2     2     1.13632498    -0.26080086  -686.27026106    -0.00000008    -0.00000001  0.57D-08  0.17D-08    58.41


 =====================================
 Analysis of CPU times by interactions
 =====================================

       I      S      P

 I   0.2%
 S   0.2%   3.0%
 P   0.6%  13.0%  42.8%

 Initialization:   0.7%
 Other:           39.5%

 Total CPU:       58.4 seconds
 =====================================



 gnormi=  0.89808510  gnorms=  0.03797317  gnormp=  0.06394173  gnorm=  1.00000000
 ecorri= -0.23331877  ecorrs= -0.00986495  ecorrp= -0.01661212  ecorr= -0.25979584

 gnormi=  0.88002993  gnorms=  0.05849996  gnormp=  0.06147011  gnorm=  1.00000000
 ecorri= -0.22951257  ecorrs= -0.01525984  ecorrp= -0.01602846  ecorr= -0.26080086

 Wavefunction saved on  8460.2

 Reference coefficients greater than 0.0500000
 =============================================
 22/0202/           0.9293178  -0.0350480
 2/20202/           0.0007266   0.8031983
 222/20/0           0.0044083   0.3418354
 22/0\/2/          -0.0983472  -0.2539569
 22/0/\2/           0.0636161   0.1091615
 2/00222/           0.0334956  -0.0973112
 220/202/           0.0499036   0.0875177
 22/0//2\           0.0195003   0.0669020
 2/20\/2/          -0.0577795   0.0038769
 22/0022/          -0.0538725  -0.0227907

 Coefficients of singly external configurations greater than 0.0500000
 =====================================================================

 2/202020  10.3    -0.0249679   0.0508713

 Coefficients of fixed reference functions:
 ==========================================

 State      Coefficients
 1           0.946240   -0.017291
 2           0.017374    0.932164

 Coefficients of rotated reference functions:
 ============================================

 State      Coefficients
 1           0.946398    0.000172
 2           0.000172    0.932326

 Energy contributions of internal configurations for state 2
 ===========================================================

   NUMBER        NORM          ECORR1        OCCUPATION

   464       0.00352877    -1.10502777       21202021                        


 RESULTS FOR STATE 1.3
 =====================

 Coefficient of reference function:   C(0) = 0.94623998 (fixed)   0.94767352 (relaxed)   0.94639793 (rotated)

 Energy contributions of configuration classes

 CLASS          SQ.NORM        ECORR1        ECORR2
 +++++++++++++++++++++++++++++++++++++++++++++++++++
 Internals    0.00269748   -0.00000058   -0.17595500
 Singles      0.04239643   -0.06270659   -0.06602930
 Pairs        0.07138991   -0.00133913   -0.01781154
 Total        1.11648382   -0.06404631   -0.25979584
 +++++++++++++++++++++++++++++++++++++++++++++++++++


 Reference energy                    -686.18379733
 Nuclear energy                        79.02379683
 Kinetic energy                       688.67910117
 One electron energy                -1107.84248975
 Two electron energy                  342.37504038
 Virial quotient                       -0.99675401
 Correlation energy                    -0.25985521
 !MRCI STATE 1.3 Energy              -686.443652539226

 Properties without orbital relaxation:

 !MRCI STATE 1.3 Dipole moment          0.00000000     0.00000000    -0.29740466
 Dipole moment /Debye                   0.00000000     0.00000000    -0.75592725

 Cluster corrected energies          -686.47392147 (Davidson, fixed reference)
 Cluster corrected energies          -686.47314097 (Davidson, relaxed reference)
 Cluster corrected energies          -686.47392147 (Davidson, rotated reference)

 Cluster corrected energies          -686.46768944 (Pople, fixed reference)
 Cluster corrected energies          -686.46703594 (Pople, relaxed reference)
 Cluster corrected energies          -686.46768944 (Pople, rotated reference)







 RESULTS FOR STATE 2.3
 =====================

 Coefficient of reference function:   C(0) = 0.93216447 (fixed)   0.93809911 (relaxed)   0.93232635 (rotated)

 Energy contributions of configuration classes

 CLASS          SQ.NORM        ECORR1        ECORR2
 +++++++++++++++++++++++++++++++++++++++++++++++++++
 Internals    0.01242188   -0.00000058   -0.00299201
 Singles      0.06730071   -0.07249907   -0.07827839
 Pairs        0.07071769   -0.18809930   -0.17953047
 Total        1.15044028   -0.26059896   -0.26080086
 +++++++++++++++++++++++++++++++++++++++++++++++++++


 Reference energy                    -686.00951957
 Nuclear energy                        79.02379683
 Kinetic energy                       688.54266632
 One electron energy                -1106.29329598
 Two electron energy                  340.99923810
 Virial quotient                       -0.99669969
 Correlation energy                    -0.26074149
 !MRCI STATE 2.3 Energy              -686.270261055898

 Properties without orbital relaxation:

 !MRCI STATE 2.3 Dipole moment          0.00000000     0.00000000     0.98391752
 Dipole moment /Debye                   0.00000000     0.00000000     2.50086888

 Cluster corrected energies          -686.30948708 (Davidson, fixed reference)
 Cluster corrected energies          -686.30580664 (Davidson, relaxed reference)
 Cluster corrected energies          -686.30948708 (Davidson, rotated reference)

 Cluster corrected energies          -686.30191721 (Pople, fixed reference)
 Cluster corrected energies          -686.29875642 (Pople, relaxed reference)
 Cluster corrected energies          -686.30191721 (Pople, rotated reference)






 !MRCI trans          <2.3|DMZ|1.3>    -0.556841164350 au =    -1.415349065615 Debye


 **********************************************************************************************************************************
 DATASETS  * FILE   NREC   LENGTH (MB)   RECORD NAMES
              1      21      585.24       500      700      610      701      900      950      970     1000      129      960   
                                          VAR     GEOM    BASINP    GEOM    SYMINP    ZMAT    AOBASIS   BASIS     P2S    ABASIS    
                                         1100     1400     1410     1200     1210     1080     1600     1650     1300     1700   
                                           S        T        V       H0       H01     AOSYM     SMH    MOLCAS    ERIS     OPER   
                                         1380   
                                         JKOP   

              2       9       37.43       500      610      700     1000      520     2100     2140      701     8460   
                                          VAR    BASINP    GEOM     BASIS   MCVARS     RHF     MCSCF    GEOM     MRCI   

 PROGRAMS   *        TOTAL        CI     MULTI       INT   RESTART
 CPU TIMES  *        97.09     58.66      2.42     35.91      0.00
 REAL TIME  *       101.11 SEC
 DISK USED  *         1.81 GB
 **********************************************************************************************************************************


 PROGRAM * CI (Multireference internally contracted CI)     Authors: H.-J. Werner, P.J. Knowles, 1987


 Convergence thresholds:  THRVAR = 1.00D-08  THRDEN = 1.00D-06

 Number of optimized states: 2  Roots:    1   2
 Number of reference states: 2  Roots:    1   2

 Program parameters:       NSTATE=  2    NSTATI=  3    NSTATR=  2    NCEPA = -1    NOKOP =  0    ITRDM =  0    ITRANS=  0
                           IDIP  =200    MAXIT =250    MAXITI=250    MAXDAV=  6    MAXVI =  9    NOSING=  0    NOPAIR=  0
                           MXSHRF=  5    IKCPS =  0    IOPTGM=  2    IOPTOR=  0    REFOPT=  1    IAVDEN=  0    IDELCG=  1
                           IREST =  0    NATORB=  0    IPUNRF=  0    ISEP  =  0    OLDDEN=  0    NSTPRI=  1    GPSFLI= -1
                           CLUSTE=  0    CLOSED=  1    ILSTYP=  0    ITRLS =  0    ICCSD =  0    LOCAL =  0    IBASO =  0
                           MP    =  0    ITEDIS=  2    INCDIS=  1    MAXDIS=  6    ITYDIS=  1    BRUECK=  0    IBRSTR=  3
                           INCBRK=  1    TRIPLE=  0    ICCTYP=  2    IHPPD =  0    ICCNEW=  0    I3EXT = -1    IDEB  =  0
                           IDLEIG=  1    IDFTYP=  1    IMP3  =  0    IPROCS=  0    NOINT =  0    NOREF =  1    IMP2G =  0
                           IHINT =  0    IFDIA =  0    ISPARO=  1    JKSYM =  0    CPHF  =  0    MP2D  = -1    DKINT =  0
                           NPKEX =  1    DRVK  =  1    HLSTRA=  1    WIGNER=  1    DIIS_C=  1    MAXIT_= 50    MATEL =  0
                           SPDEG =  1    MEMCPH=  0    DISM  =  1    KDCPMA=  5    IKDCP_=  0    IREDTH=  0    USECS =  0
                           IPROCC=  0    I3SAVE=  1    IKDCP =  1    USECI =  0    OLDPAI=  0    IPROCI=  0    KEEPCL=  1
                           DISCON=  0    SHIFTE=  0    DIISIN=  0    MOLCAS=  0    MEM_PT=  0    RECORD=  0    RS2C  =  0
                           KEXT  = -1    CIPT2 =  0    DECP0S=  0    I4EXT = -1    NATCOR=  0    RIMP2 =  0    DDCI  = -1
                           IPOLAR=  0

 Reference symmetry:                   2   Triplet 
 Number of electrons:                 30
 Maximum number of shells:             5
 Maximum number of spin couplings:    90

 Reference space:      192 conf      384 CSFs
 N elec internal:      728 conf     1512 CSFs
 N-1 el internal:     1016 conf     3696 CSFs
 N-2 el internal:     1016 conf     6857 CSFs

 Number of electrons in valence space:                     10
 Maximum number of open shell orbitals in reference space:  6
 Maximum number of open shell orbitals in internal spaces: 10


 Number of core orbitals:          10 (   6   2   2   0 )
 Number of active  orbitals:        8 (   4   2   2   0 )
 Number of external orbitals:     244 (  86  60  60  38 )

 Molecular orbitals read from record     2140.2  Type=MCSCF/NATURAL (state averaged)

 Coulomb and exchange operators available. No transformation done.


 Number of p-space configurations:  12

 Reference wavefunction optimized for reference space (refopt=1)

 State     Reference Energy 
     1      -686.18385670
     2      -686.00946019
     3      -686.00533762

 Number of blocks in overlap matrix:     8   Smallest eigenvalue:  0.26D-02
 Number of N-2 electron functions:     128
 Number of N-1 electron functions:    3696

 Number of internal configurations:                  384
 Number of singly external configurations:        225456
 Number of doubly external configurations:        972960
 Total number of contracted configurations:      1198800
 Total number of uncontracted configurations:   51278176

 Diagonal Coupling coefficients finished.               Storage:  296869 words, CPU-Time:      0.05 seconds.
 Energy denominators for pairs finished in 1 passes.    Storage:  451087 words, CPU-time:      0.01 seconds.

  ITER. STATE  ROOT     SQ.NORM     CORR.ENERGY   TOTAL ENERGY   ENERGY CHANGE       DEN1      VAR(S)    VAR(P)      TIME
    1     1     1     1.00000000     0.00000000  -686.18385670    -0.00000000    -0.27602556  0.61D-01  0.70D-01     0.16
    1     2     2     1.00000000     0.00000000  -686.00946019     0.00000000    -0.27211205  0.70D-01  0.70D-01     0.16
    2     1     1     1.10717623    -0.25016681  -686.43402351    -0.25016681    -0.00897586  0.26D-02  0.18D-02     6.99
    2     2     2     1.11875251    -0.25121477  -686.26067497    -0.25121477    -0.00783917  0.22D-02  0.16D-02     6.99
    3     1     1     1.11024298    -0.25910871  -686.44296541    -0.00894190    -0.00058521  0.14D-03  0.12D-03    13.83
    3     2     2     1.12533894    -0.25971490  -686.26917509    -0.00850012    -0.00069628  0.32D-03  0.11D-03    13.83
    4     1     1     1.11274529    -0.25973621  -686.44359291    -0.00062750    -0.00004833  0.12D-04  0.98D-05    20.81
    4     2     2     1.13185112    -0.26058884  -686.27004904    -0.00087395    -0.00012426  0.55D-04  0.18D-04    20.81
    5     1     1     1.11340046    -0.25978998  -686.44364668    -0.00005377    -0.00000465  0.11D-05  0.91D-06    27.79
    5     2     2     1.13481150    -0.26075628  -686.27021648    -0.00016744    -0.00002901  0.13D-04  0.39D-05    27.79
    6     1     1     1.11345942    -0.25979526  -686.44365196    -0.00000528    -0.00000047  0.12D-06  0.92D-07    34.73
    6     2     2     1.13543449    -0.26079080  -686.27025099    -0.00003452    -0.00000611  0.35D-05  0.69D-06    34.73
    7     1     1     1.11347393    -0.25979577  -686.44365247    -0.00000051    -0.00000006  0.21D-07  0.11D-07    41.68
    7     2     2     1.13583245    -0.26079808  -686.27025828    -0.00000728    -0.00000158  0.87D-06  0.19D-06    41.68
    8     1     1     1.11348124    -0.25979584  -686.44365254    -0.00000007    -0.00000001  0.25D-08  0.17D-08    48.65
    8     2     2     1.13608642    -0.26080004  -686.27026023    -0.00000196    -0.00000050  0.32D-06  0.47D-07    48.65
    9     1     1     1.11348032    -0.25979584  -686.44365254    -0.00000000    -0.00000001  0.23D-08  0.17D-08    53.48
    9     2     2     1.13631762    -0.26080079  -686.27026098    -0.00000075    -0.00000007  0.27D-07  0.10D-07    53.48
   10     1     1     1.11348024    -0.25979584  -686.44365254    -0.00000000    -0.00000001  0.22D-08  0.16D-08    58.28
   10     2     2     1.13632502    -0.26080086  -686.27026106    -0.00000008    -0.00000001  0.57D-08  0.17D-08    58.28


 =====================================
 Analysis of CPU times by interactions
 =====================================

       I      S      P

 I   0.2%
 S   0.1%   3.0%
 P   0.7%  13.1%  43.2%

 Initialization:   0.2%
 Other:           39.7%

 Total CPU:       58.3 seconds
 =====================================



 gnormi=  0.89808509  gnorms=  0.03797318  gnormp=  0.06394173  gnorm=  1.00000000
 ecorri= -0.23331877  ecorrs= -0.00986495  ecorrp= -0.01661212  ecorr= -0.25979584

 gnormi=  0.88002990  gnorms=  0.05849999  gnormp=  0.06147010  gnorm=  1.00000000
 ecorri= -0.22951256  ecorrs= -0.01525987  ecorrp= -0.01602844  ecorr= -0.26080086

 Wavefunction saved on  7460.2

 Reference coefficients greater than 0.0500000
 =============================================
 22/02/20           0.9293178  -0.0350480
 2/202/20           0.0007266   0.8031983
 222//020           0.0044083   0.3418354
 22/02/\/          -0.1049664  -0.2696645
 2/002/22           0.0334956  -0.0973113
 220/2/20           0.0499036   0.0875177
 22/02//\           0.0534777   0.0806178
 2/202/\/          -0.0598144  -0.0015327
 22/02/02          -0.0538725  -0.0227907

 Coefficients of singly external configurations greater than 0.0500000
 =====================================================================

 2/202020  10.2    -0.0249679   0.0508714

 Coefficients of fixed reference functions:
 ==========================================

 State      Coefficients
 1           0.946240   -0.017291
 2           0.017374    0.932164

 Coefficients of rotated reference functions:
 ============================================

 State      Coefficients
 1           0.946398    0.000172
 2           0.000172    0.932326

 Energy contributions of internal configurations for state 2
 ===========================================================

   NUMBER        NORM          ECORR1        OCCUPATION

   274       0.00352877    -1.10502786       21202120                        


 RESULTS FOR STATE 1.2
 =====================

 Coefficient of reference function:   C(0) = 0.94623998 (fixed)   0.94767351 (relaxed)   0.94639793 (rotated)

 Energy contributions of configuration classes

 CLASS          SQ.NORM        ECORR1        ECORR2
 +++++++++++++++++++++++++++++++++++++++++++++++++++
 Internals    0.00269748   -0.00000058   -0.17595499
 Singles      0.04239645   -0.06270659   -0.06602931
 Pairs        0.07138990   -0.00133914   -0.01781155
 Total        1.11648383   -0.06404632   -0.25979584
 +++++++++++++++++++++++++++++++++++++++++++++++++++


 Reference energy                    -686.18379733
 Nuclear energy                        79.02379683
 Kinetic energy                       688.67910195
 One electron energy                -1107.84249155
 Two electron energy                  342.37504218
 Virial quotient                       -0.99675400
 Correlation energy                    -0.25985521
 !MRCI STATE 1.2 Energy              -686.443652539265

 Properties without orbital relaxation:

 !MRCI STATE 1.2 Dipole moment          0.00000000     0.00000000    -0.29740502
 Dipole moment /Debye                   0.00000000     0.00000000    -0.75592816

 Cluster corrected energies          -686.47392147 (Davidson, fixed reference)
 Cluster corrected energies          -686.47314097 (Davidson, relaxed reference)
 Cluster corrected energies          -686.47392147 (Davidson, rotated reference)

 Cluster corrected energies          -686.46768944 (Pople, fixed reference)
 Cluster corrected energies          -686.46703594 (Pople, relaxed reference)
 Cluster corrected energies          -686.46768944 (Pople, rotated reference)







 RESULTS FOR STATE 2.2
 =====================

 Coefficient of reference function:   C(0) = 0.93216445 (fixed)   0.93809909 (relaxed)   0.93232634 (rotated)

 Energy contributions of configuration classes

 CLASS          SQ.NORM        ECORR1        ECORR2
 +++++++++++++++++++++++++++++++++++++++++++++++++++
 Internals    0.01242189   -0.00000058   -0.00299201
 Singles      0.06730075   -0.07249906   -0.07827840
 Pairs        0.07071769   -0.18809932   -0.17953046
 Total        1.15044033   -0.26059896   -0.26080086
 +++++++++++++++++++++++++++++++++++++++++++++++++++


 Reference energy                    -686.00951957
 Nuclear energy                        79.02379683
 Kinetic energy                       688.54266680
 One electron energy                -1106.29329767
 Two electron energy                  340.99923979
 Virial quotient                       -0.99669969
 Correlation energy                    -0.26074149
 !MRCI STATE 2.2 Energy              -686.270261055654

 Properties without orbital relaxation:

 !MRCI STATE 2.2 Dipole moment          0.00000000     0.00000000     0.98391667
 Dipole moment /Debye                   0.00000000     0.00000000     2.50086672

 Cluster corrected energies          -686.30948709 (Davidson, fixed reference)
 Cluster corrected energies          -686.30580665 (Davidson, relaxed reference)
 Cluster corrected energies          -686.30948709 (Davidson, rotated reference)

 Cluster corrected energies          -686.30191722 (Pople, fixed reference)
 Cluster corrected energies          -686.29875643 (Pople, relaxed reference)
 Cluster corrected energies          -686.30191722 (Pople, rotated reference)






 !MRCI trans          <2.2|DMZ|1.2>    -0.556841287171 au =    -1.415349377797 Debye


 **********************************************************************************************************************************
 DATASETS  * FILE   NREC   LENGTH (MB)   RECORD NAMES
              1      21      585.24       500      700      610      701      900      950      970     1000      129      960   
                                          VAR     GEOM    BASINP    GEOM    SYMINP    ZMAT    AOBASIS   BASIS     P2S    ABASIS    
                                         1100     1400     1410     1200     1210     1080     1600     1650     1300     1700   
                                           S        T        V       H0       H01     AOSYM     SMH    MOLCAS    ERIS     OPER   
                                         1380   
                                         JKOP   

              2      10       59.59       500      610      700     1000      520     2100     2140      701     8460     7460   
                                          VAR    BASINP    GEOM     BASIS   MCVARS     RHF     MCSCF    GEOM     MRCI     MRCI   

 PROGRAMS   *        TOTAL        CI        CI     MULTI       INT   RESTART
 CPU TIMES  *       155.61     58.52     58.66      2.42     35.91      0.00
 REAL TIME  *       162.02 SEC
 DISK USED  *         1.81 GB
 **********************************************************************************************************************************


 PROGRAM * CI (Multireference internally contracted CI)     Authors: H.-J. Werner, P.J. Knowles, 1987


 Ket wavefunction restored from record 8460.2 to file 8
 Bra wavefunction restored from record 7460.2 to file 7
 !MRCI trans           <1.2|LZ|1.3>    -0.999751337983i
 !MRCI trans           <1.2|LZ|2.3>    -0.000021217971i
 !MRCI trans           <2.2|LZ|1.3>    -0.000021217436i
 !MRCI trans           <2.2|LZ|2.3>    -0.999493126743i


 **********************************************************************************************************************************
 DATASETS  * FILE   NREC   LENGTH (MB)   RECORD NAMES
              1      21      585.24       500      700      610      701      900      950      970     1000      129      960   
                                          VAR     GEOM    BASINP    GEOM    SYMINP    ZMAT    AOBASIS   BASIS     P2S    ABASIS    
                                         1100     1400     1410     1200     1210     1080     1600     1650     1300     1700   
                                           S        T        V       H0       H01     AOSYM     SMH    MOLCAS    ERIS     OPER   
                                         1380   
                                         JKOP   

              2      10       59.59       500      610      700     1000      520     2100     2140      701     8460     7460   
                                          VAR    BASINP    GEOM     BASIS   MCVARS     RHF     MCSCF    GEOM     MRCI     MRCI   

 PROGRAMS   *        TOTAL        CI        CI        CI     MULTI       INT   RESTART
 CPU TIMES  *       156.11      0.50     58.52     58.66      2.42     35.91      0.00
 REAL TIME  *       162.61 SEC
 DISK USED  *         1.81 GB
 **********************************************************************************************************************************

              CI              CI           MULTI
   -686.27026106   -686.27026106   -686.00533762
 **********************************************************************************************************************************
 Molpro calculation terminated
