
 Working directory              : /tmp/molpro/molpro.tfneC1QaFa/
 Global scratch directory       : /tmp/molpro/molpro.tfneC1QaFa/
 Wavefunction directory         : /home/molpro/wfu/
 Main file repository           : /tmp/molpro/molpro.tfneC1QaFa/

 id        : gskim

 Nodes                nprocs
 localhost.localdomain    1
 GA implementation: MPI file
 GA implementation (serial work in mppx): MPI file

 Using customized tuning parameters: mindgm=1; mindgv=20; mindgc=4; mindgr=1; noblas=0; minvec=7
 default implementation of scratch files=df  


 Variables initialized (1009), CPU time= 0.01 sec
 ***,The CI for SiS   3sig+  excited states
 file,2,sis-3sigp3b.wfu
 memory,1000,M
 geometry={angstrom;
 Si
 S,Si,r(i)}
 basis=av5z
 r=[2.016,2.01,2.00,1.99,1.98,1.97,1.96,1.957,1.95,1.94,1.93,1.92,1.91,1.90,1.89,1.88,1.87,1.86,1.85,1.84,1.83,1.82,1.81,1.80,1.79,1.78,1.77,1.76,1.75,1.74,1.73,1.72,1.71,1.70,1.69,1.68,1.67,1.66,1.65,1.64,1.63,1.62,1.61,1.60,1.59,1.58,1.57,1.56,1.55,1.54,1.53,1.52,1.51,1.50,1.49,1.48,1.47,1.46,1.45,1.44,1.43,1.42,1.41,1.40,1.395,1.39,1.385,1.38,1.375,1.37,1.365,1.36,1.355,1.35,1.345,1.34,1.335,1.33,1.325,1.32,1.315,1.31,1.305,1.30,1.295,1.29,1.285,1.28,1.275,1.27,1.265,1.26,1.255,1.25,1.245,1.24,1.235,1.23,1.225,1.22,1.215,1.21,1.205,1.20,1.195,1.19,1.185,1.18,1.175,1.17,1.165,1.16,1.155,1.15,1.145,1.14,1.135,1.13,1.125,1.12,1.115,1.11,1.105,1.10]
 do i=1,#r
 int;
 
 
 Text,CASSCF, state averaged orbitals for 3sig+ state
 
 {multi;occ,10,4,4;close,6,2,2;start,2130.2;orbital,2140.2;natorb,,ci;wf,30,1,2;state,4;maxiter,40;}
 {ci;occ,10,4,4;core,6,2,2;wf,30,1,2;state,3;maxiter,250;option,maxiti=250;option,nstati=4;orbital,ignore_error=1;}
 
 
 e1(i)=energy(1)
 e2(i)=energy(2)
 e3(i)=energy(3)
 
 
 enddo
 
 table,r,e1,e2,e3
 
 
 Commands initialized (810), CPU time= 0.00 sec, 661 directives.
 Default parameters read. Elapsed time= 0.05 sec

 Checking input...
 Passed
1


                                         ***  PROGRAM SYSTEM MOLPRO  ***
                                       Copyright, TTI GmbH Stuttgart, 2015
                                    Version 2021.2 linked Jul 16 2021 07:37:36


 **********************************************************************************************************************************
 LABEL *   The CI for SiS   3sig+  excited states                                        
  64 bit serial version                                                                  DATE: 07-Oct-24          TIME: 14:22:00  
 **********************************************************************************************************************************

 SHA1:             dade016a989826d9d859d6207854b99675d53db3
 **********************************************************************************************************************************

 Memory per process:      1000 MW
 Total memory per node:   1000 MW

 GA preallocation disabled
 GA check disabled

 Variable memory set to 1000.0 MW



 Permanent file  2  sis-3sigp3b.wfu  assigned.  Implementation=df    Size= 17.78 MB


 PROGRAM * RESTART 


 Reading variables from file 2

 _FNUC           =      0.00000000
 _BASIS          =    AV5Z
 _NELEC          =     30.00000000
 _PROGRAM        =    CI
 _DMX(2:3)       =      0.00000000     0.00000000
 _DMY(2:3)       =      0.00000000     0.00000000
 _DMZ(1:3)       =      0.20885838     0.10300021    -0.08480877
 _DMX_SCF        =      0.00000000
 _DMY_SCF        =      0.00000000
 _DMZ_SCF        =      0.13948398
 _HOMO           =      4.30000000
 _EHOMO          =     -0.26533602
 _LUMO           =      4.20000000
 _ELUMO          =      0.01064966
 _ENERGD(1:3)    =   -686.72178241  -686.70889378  -686.59386785
 _ENERGD0(1:3)   =   -686.72178241  -686.70889378  -686.59386785
 _ENERGD1(1:3)   =   -686.72251511  -686.70941916  -686.59508009
 _ENERGD2(1:3)   =   -686.72251511  -686.70941916  -686.59508009
 _ENERGD3(1:3)   =   -686.72178241  -686.70889378  -686.59386785
 _ENERGD4(1:3)   =   -686.72251511  -686.70941916  -686.59508009
 _ENERGP(1:3)    =   -686.71601041  -686.70272940  -686.58775231
 _ENERGP0(1:3)   =   -686.71601041  -686.70272940  -686.58775231
 _ENERGP1(1:3)   =   -686.71662557  -686.70317256  -686.58877912
 _ENERGP2(1:3)   =   -686.71662557  -686.70317256  -686.58877912
 _ENERGP3(1:3)   =   -686.71601041  -686.70272940  -686.58775231
 _ENERGP4(1:3)   =   -686.71662557  -686.70317256  -686.58877912
 _ENERGR(1:3)    =   -686.45305931  -686.43088109  -686.32270025
 _ENERGRR(1:3)   =   -686.45304761  -686.43088109  -686.32271195
 _ENERGY(1:3)    =   -686.69374876  -686.67863853  -686.56367202
 _ENERGY_METHOD  =    CI
 _ENERGY_BASIS   =    aug-cc-pV5Z
 _ENERGY_AVRG    =   -686.36356513
 _ENUC           =     58.79746788
 _IPROC_MPP      =      0.00000000
 _IPROC_MPPX     =      0.00000000
 _ORBITAL        =   2140.20000000
 _ROOT(1:3)      =      1.00000000     2.00000000     3.00000000
 _STATUS         =      1.00000000
 _TROV           =     -0.00000000
 _DATE           =    05-Oct-24
 _LASTORB        =    MCSCF
 _OUTPUT         =    /home/molpro/SiS-3oct2024/dir-6/sis-3sigp3mc.out
 _PGROUP         =    C2v 
 _TIME           =    04:21:12
 _C0(1:3)        =      0.89568284     0.89117312     0.88864032
 _C0R(1:3)       =      0.89324741     0.88949221     0.88468521
 _DMX_CC(1:4)    =     -0.00000000    -0.00000000    -0.00000000    -0.00000000
 _DMY_CC(1:4)    =     -0.00000000    -0.00000000    -0.00000000    -0.00000000
 _DMZ_CC(1:4)    =      2.51304822     2.51304822     2.51304822     2.51304822
 _DMX_NUC(1:4)   =      0.00000000     0.00000000     0.00000000     0.00000000
 _DMY_NUC(1:4)   =      0.00000000     0.00000000     0.00000000     0.00000000
 _DMZ_NUC(1:4)   =      0.03344415     0.03344415     0.03344415     0.03344415
 _SYM_CATION     =      3.00000000
 R               =      2.01600000
 _TRDMX(1:3)     =     -0.00000000    -0.00000000    -0.00000000
 _TRDMY(1:3)     =     -0.00000000    -0.00000000    -0.00000000
 _TRDMZ(1:3)     =      0.00000184     0.01338365    -0.00000126

 Geometry written to block  1 of record 700


 **********************************************************************************************************************************
 DATASETS  * FILE   NREC   LENGTH (MB)   RECORD NAMES
              2       7       17.78       500      610      700     1000      520     2100     2140   
                                          VAR    BASINP    GEOM     BASIS   MCVARS     RHF     MCSCF   

 PROGRAMS   *        TOTAL   RESTART
 CPU TIMES  *         0.09      0.00
 REAL TIME  *         0.12 SEC
 DISK USED  *        29.25 MB
 **********************************************************************************************************************************
 SETTING BASIS          =    AV5Z
 SETTING R(1)           =         2.01600000                                  
 SETTING R(2)           =         2.01000000                                  
 SETTING R(3)           =         2.00000000                                  
 SETTING R(4)           =         1.99000000                                  
 SETTING R(5)           =         1.98000000                                  
 SETTING R(6)           =         1.97000000                                  
 SETTING R(7)           =         1.96000000                                  
 SETTING R(8)           =         1.95700000                                  
 SETTING R(9)           =         1.95000000                                  
 SETTING R(10)          =         1.94000000                                  
 SETTING R(11)          =         1.93000000                                  
 SETTING R(12)          =         1.92000000                                  
 SETTING R(13)          =         1.91000000                                  
 SETTING R(14)          =         1.90000000                                  
 SETTING R(15)          =         1.89000000                                  
 SETTING R(16)          =         1.88000000                                  
 SETTING R(17)          =         1.87000000                                  
 SETTING R(18)          =         1.86000000                                  
 SETTING R(19)          =         1.85000000                                  
 SETTING R(20)          =         1.84000000                                  
 SETTING R(21)          =         1.83000000                                  
 SETTING R(22)          =         1.82000000                                  
 SETTING R(23)          =         1.81000000                                  
 SETTING R(24)          =         1.80000000                                  
 SETTING R(25)          =         1.79000000                                  
 SETTING R(26)          =         1.78000000                                  
 SETTING R(27)          =         1.77000000                                  
 SETTING R(28)          =         1.76000000                                  
 SETTING R(29)          =         1.75000000                                  
 SETTING R(30)          =         1.74000000                                  
 SETTING R(31)          =         1.73000000                                  
 SETTING R(32)          =         1.72000000                                  
 SETTING R(33)          =         1.71000000                                  
 SETTING R(34)          =         1.70000000                                  
 SETTING R(35)          =         1.69000000                                  
 SETTING R(36)          =         1.68000000                                  
 SETTING R(37)          =         1.67000000                                  
 SETTING R(38)          =         1.66000000                                  
 SETTING R(39)          =         1.65000000                                  
 SETTING R(40)          =         1.64000000                                  
 SETTING R(41)          =         1.63000000                                  
 SETTING R(42)          =         1.62000000                                  
 SETTING R(43)          =         1.61000000                                  
 SETTING R(44)          =         1.60000000                                  
 SETTING R(45)          =         1.59000000                                  
 SETTING R(46)          =         1.58000000                                  
 SETTING R(47)          =         1.57000000                                  
 SETTING R(48)          =         1.56000000                                  
 SETTING R(49)          =         1.55000000                                  
 SETTING R(50)          =         1.54000000                                  
 SETTING R(51)          =         1.53000000                                  
 SETTING R(52)          =         1.52000000                                  
 SETTING R(53)          =         1.51000000                                  
 SETTING R(54)          =         1.50000000                                  
 SETTING R(55)          =         1.49000000                                  
 SETTING R(56)          =         1.48000000                                  
 SETTING R(57)          =         1.47000000                                  
 SETTING R(58)          =         1.46000000                                  
 SETTING R(59)          =         1.45000000                                  
 SETTING R(60)          =         1.44000000                                  
 SETTING R(61)          =         1.43000000                                  
 SETTING R(62)          =         1.42000000                                  
 SETTING R(63)          =         1.41000000                                  
 SETTING R(64)          =         1.40000000                                  
 SETTING R(65)          =         1.39500000                                  
 SETTING R(66)          =         1.39000000                                  
 SETTING R(67)          =         1.38500000                                  
 SETTING R(68)          =         1.38000000                                  
 SETTING R(69)          =         1.37500000                                  
 SETTING R(70)          =         1.37000000                                  
 SETTING R(71)          =         1.36500000                                  
 SETTING R(72)          =         1.36000000                                  
 SETTING R(73)          =         1.35500000                                  
 SETTING R(74)          =         1.35000000                                  
 SETTING R(75)          =         1.34500000                                  
 SETTING R(76)          =         1.34000000                                  
 SETTING R(77)          =         1.33500000                                  
 SETTING R(78)          =         1.33000000                                  
 SETTING R(79)          =         1.32500000                                  
 SETTING R(80)          =         1.32000000                                  
 SETTING R(81)          =         1.31500000                                  
 SETTING R(82)          =         1.31000000                                  
 SETTING R(83)          =         1.30500000                                  
 SETTING R(84)          =         1.30000000                                  
 SETTING R(85)          =         1.29500000                                  
 SETTING R(86)          =         1.29000000                                  
 SETTING R(87)          =         1.28500000                                  
 SETTING R(88)          =         1.28000000                                  
 SETTING R(89)          =         1.27500000                                  
 SETTING R(90)          =         1.27000000                                  
 SETTING R(91)          =         1.26500000                                  
 SETTING R(92)          =         1.26000000                                  
 SETTING R(93)          =         1.25500000                                  
 SETTING R(94)          =         1.25000000                                  
 SETTING R(95)          =         1.24500000                                  
 SETTING R(96)          =         1.24000000                                  
 SETTING R(97)          =         1.23500000                                  
 SETTING R(98)          =         1.23000000                                  
 SETTING R(99)          =         1.22500000                                  
 SETTING R(100)         =         1.22000000                                  
 SETTING R(101)         =         1.21500000                                  
 SETTING R(102)         =         1.21000000                                  
 SETTING R(103)         =         1.20500000                                  
 SETTING R(104)         =         1.20000000                                  
 SETTING R(105)         =         1.19500000                                  
 SETTING R(106)         =         1.19000000                                  
 SETTING R(107)         =         1.18500000                                  
 SETTING R(108)         =         1.18000000                                  
 SETTING R(109)         =         1.17500000                                  
 SETTING R(110)         =         1.17000000                                  
 SETTING R(111)         =         1.16500000                                  
 SETTING R(112)         =         1.16000000                                  
 SETTING R(113)         =         1.15500000                                  
 SETTING R(114)         =         1.15000000                                  
 SETTING R(115)         =         1.14500000                                  
 SETTING R(116)         =         1.14000000                                  
 SETTING R(117)         =         1.13500000                                  
 SETTING R(118)         =         1.13000000                                  
 SETTING R(119)         =         1.12500000                                  
 SETTING R(120)         =         1.12000000                                  
 SETTING R(121)         =         1.11500000                                  
 SETTING R(122)         =         1.11000000                                  
 SETTING R(123)         =         1.10500000                                  
 SETTING R(124)         =         1.10000000                                  

 DO I                   =         1.00000000   


 Using spherical harmonics

 Library entry SI     S aug-cc-pV5Z          selected for orbital group  1
 Library entry SI     P aug-cc-pV5Z          selected for orbital group  1
 Library entry SI     D aug-cc-pV5Z          selected for orbital group  1
 Library entry SI     F aug-cc-pV5Z          selected for orbital group  1
 Library entry SI     G aug-cc-pV5Z          selected for orbital group  1
 Library entry SI     H aug-cc-pV5Z          selected for orbital group  1
 Library entry S      S aug-cc-pV5Z          selected for orbital group  2
 Library entry S      P aug-cc-pV5Z          selected for orbital group  2
 Library entry S      D aug-cc-pV5Z          selected for orbital group  2
 Library entry S      F aug-cc-pV5Z          selected for orbital group  2
 Library entry S      G aug-cc-pV5Z          selected for orbital group  2
 Library entry S      H aug-cc-pV5Z          selected for orbital group  2


 PROGRAM * SEWARD (Integral evaluation for generally contracted gaussian basis sets)     Author: Roland Lindh, 1990

 Geometry written to block  1 of record 701

 Orientation using atomic masses  
 Molecule type: Linear
 Symmetry elements: X,Y
 Rotational constants:       8.3060319      8.3060319      0.0000000 GHz  (calculated with average atomic masses)

 Point group  C2v 



 ATOMIC COORDINATES

 NR  ATOM    CHARGE       X              Y              Z

   1  SI     14.00    0.000000000    0.000000000   -2.030718724
   2  S      16.00    0.000000000    0.000000000    1.778969143

 Bond lengths in Bohr (Angstrom)

 1-2  3.809687867
     ( 2.016000000)

 NUCLEAR CHARGE:                   30
 NUMBER OF PRIMITIVE AOS:         434
 NUMBER OF SYMMETRY AOS:          324
 NUMBER OF CONTRACTIONS:          262   (   96A1  +   64B1  +   64B2  +   38A2  )
 NUMBER OF INNER CORE ORBITALS:     2   (    2A1  +    0B1  +    0B2  +    0A2  )
 NUMBER OF OUTER CORE ORBITALS:     8   (    4A1  +    2B1  +    2B2  +    0A2  )
 NUMBER OF VALENCE ORBITALS:        8   (    4A1  +    2B1  +    2B2  +    0A2  )


 NUCLEAR REPULSION ENERGY   58.79746788

 EXTRA SYMMETRY OF AOS IN SYMMETRY 1:   1 1 1 1 1 1 1 1 1 1   1 1 1 1 1 1 2 1 2 1   2 1 2 1 2 1 2 1 2 1   2 1 2 1 3 2 1 3 2 1
                                        3 2 2 3 1 2 3 1 1 1   1 1 1 1 1 1 1 1 1 1   1 1 1 1 2 1 2 1 2 1   2 1 2 1 2 1 2 1 2 1
                                        2 1 3 2 1 3 2 1 3 2   2 3 1 2 3 1
 EXTRA SYMMETRY OF AOS IN SYMMETRY 2:   1 1 1 1 1 1 1 1 1 1   1 1 1 2 1 2 1 2 1 2   1 2 1 2 1 2 1 2 3 1   2 3 1 1 1 1 1 1 1 1
                                        1 1 1 1 1 2 1 2 1 2   1 2 1 2 1 2 1 2 1 2   3 1 2 3
 EXTRA SYMMETRY OF AOS IN SYMMETRY 3:   1 1 1 1 1 1 1 1 1 1   1 1 1 2 1 2 1 2 1 2   1 2 1 2 1 2 1 2 3 1   2 3 1 1 1 1 1 1 1 1
                                        1 1 1 1 1 2 1 2 1 2   1 2 1 2 1 2 1 2 1 2   3 1 2 3
 EXTRA SYMMETRY OF AOS IN SYMMETRY 4:   1 1 1 1 1 1 1 1 1 1   2 1 2 1 2 2 1 2 1 1   1 1 1 1 1 1 1 1 1 2   1 2 1 2 2 1 2 1

 Eigenvalues of metric

         1 0.698E-05 0.820E-05 0.177E-04 0.253E-04 0.396E-04 0.236E-03 0.358E-03 0.106E-02
         2 0.897E-05 0.998E-05 0.259E-03 0.178E-02 0.419E-02 0.961E-02 0.165E-01 0.254E-01
         3 0.897E-05 0.998E-05 0.259E-03 0.178E-02 0.419E-02 0.961E-02 0.165E-01 0.254E-01
         4 0.281E-02 0.124E-01 0.305E-01 0.548E-01 0.599E-01 0.684E-01 0.831E-01 0.136E+00


 Contracted 2-electron integrals neglected if value below      1.0D-12
 AO integral compression algorithm  1   Integral accuracy      1.0D-12

     637.272 MB (compressed) written to integral file ( 43.9%)


 NUMBER OF SORTED TWO-ELECTRON INTEGRALS:  150955559.     BUFFER LENGTH:  32768
 NUMBER OF SEGMENTS:  10  SEGMENT LENGTH:   15998976      RECORD LENGTH: 524288

 Memory used in sort:      16.56 MW

 SORT1 READ   181316810. AND WROTE   100588957. INTEGRALS IN    293 RECORDS. CPU TIME:     1.98 SEC, REAL TIME:     2.48 SEC
 SORT2 READ   100588957. AND WROTE   150955559. INTEGRALS IN   2431 RECORDS. CPU TIME:     1.48 SEC, REAL TIME:     1.75 SEC

 FILE SIZES:   FILE 1:   669.0 MBYTE,  FILE 4:  1229.0 MBYTE,   TOTAL:   1897.9 MBYTE

 OPERATOR DM      FOR CENTER  0  COORDINATES:    0.000000    0.000000    0.000000


 **********************************************************************************************************************************
 DATASETS  * FILE   NREC   LENGTH (MB)   RECORD NAMES
              1      20      523.05       500      700      610      701      900      950      970     1000      129      960   
                                          VAR     GEOM    BASINP    GEOM    SYMINP    ZMAT    AOBASIS   BASIS     P2S    ABASIS    
                                         1100     1400     1410     1200     1210     1080     1600     1650     1300     1700   
                                           S        T        V       H0       H01     AOSYM     SMH    MOLCAS    ERIS     OPER   

              2       8       18.38       500      610      700     1000      520     2100     2140      701   
                                          VAR    BASINP    GEOM     BASIS   MCVARS     RHF     MCSCF    GEOM   

 PROGRAMS   *        TOTAL       INT   RESTART
 CPU TIMES  *        34.84     34.74      0.00
 REAL TIME  *        36.09 SEC
 DISK USED  *         1.79 GB
 **********************************************************************************************************************************

 PROGRAM * MULTI (Direct Multiconfiguration SCF)       Authors: P.J. Knowles, H.-J. Werner (1984)
                                                                D.A. Kreplin, P.J. Knowles, H.-J. Werner (2019)

 Number of closed-shell orbitals:  10 (   6   2   2   0 )
 Number of active  orbitals:        8 (   4   2   2   0 )
 Number of external orbitals:     244 (  86  60  60  38 )

 State symmetry 1

 Number of active electrons:  10    Spin symmetry=Triplet   Space symmetry=1
 Number of states:             4
 Number of CSFs:             360   (464 determinants, 1960 intermediate states)

 Molecular orbitals read from record     2140.2  Type=MCSCF/NATURAL (state averaged)

 EXTRA SYMMETRY OF MOS IN SYMMETRY 1:   1 1 1 1 1 1 1 1 1 1   1 1 1 2 1 1 1 2 1 2   1 2 1 1 1 2 1 2 1 3   1 2 1 2 1 2 1 3 1 2
                                        1 2 1 1 2 1 2 1 3 3   1 2 1 2 1 2 1 3 2 1   3 1 2 1 1 2 1 2 2 1   1 3 3 1 2 1 2 1 2 1
                                        1 3 2 3 1 2 1 2 1 1   2 1 1 1 1 1
 EXTRA SYMMETRY OF MOS IN SYMMETRY 2:   1 1 1 1 1 1 1 1 2 1   1 1 1 2 1 1 2 2 1 1   1 1 2 2 1 1 1 2 1 3   1 2 1 2 1 2 1 3 2 1
                                        1 2 1 2 1 1 1 2 3 1   2 1 1 2 1 2 3 2 1 1   1 1 1 1
 EXTRA SYMMETRY OF MOS IN SYMMETRY 3:   1 1 1 1 1 1 1 1 2 1   1 1 1 2 1 1 2 2 1 1   1 1 2 2 1 1 1 2 1 3   1 2 1 2 1 2 1 3 2 1
                                        1 2 1 2 1 1 1 2 3 1   2 1 1 2 1 2 3 2 1 1   1 1 1 1
 EXTRA SYMMETRY OF MOS IN SYMMETRY 4:   1 1 1 1 1 1 2 1 1 1   2 1 1 1 1 2 2 1 1 1   2 1 2 1 1 1 1 2 2 1   1 1 2 1 2 1 1 1

 Wavefunction dump at record             2140.2

 Convergence thresholds  0.10E-04 (gradient)  0.10E-05 (energy)

 Weight factors for state symmetry  1:    0.25000   0.25000   0.25000   0.25000
 
 Number of orbital rotations:  1372  ( 32 closed/active, 756 closed/virtual, 0 active/active, 584 active/virtual )
 Total number of variables:    3228
 
  Second-order MCSCF: L-BFGS accelerated
 
 ITER  MIC  NCI  NEG     ENERGY(VAR)    ENERGY(PROJ) ENERGY CHANGE       GRAD(0)  GRAD(ORB)   GRAD(CI)      STEP      TIME
   1   10   21    0   -686.36356513    -686.36356513   -0.00000000    0.00002792 0.00000000 0.00000001  0.13E-08      1.36

 CONVERGENCE REACHED!  Final gradient:    0.00000000 ( 0.42E-08)
                       Final energy:   -686.36356513
 
 Results for state 1.1
 =====================
 !MCSCF STATE 1.1 Energy                      -686.453059313320
 Nuclear energy                                 58.79746788
 Kinetic energy                                686.77467134
 One electron energy                         -1067.55767792
 Two electron energy                           322.30715073
 Virial ratio                                    1.99953171
 
 !MCSCF STATE 1.1 Dipole moment                  0.00000000     0.00000000     0.25341108
 Dipole moment /Debye                            0.00000000     0.00000000     0.64410671
 
 Results for state 2.1
 =====================
 !MCSCF STATE 2.1 Energy                      -686.430881087873
 Nuclear energy                                 58.79746788
 Kinetic energy                                686.84869710
 One electron energy                         -1067.70810214
 Two electron energy                           322.47975317
 Virial ratio                                    1.99939169
 
 !MCSCF STATE 2.1 Dipole moment                  0.00000000     0.00000000     0.04061074
 Dipole moment /Debye                            0.00000000     0.00000000     0.10322220
 
 Results for state 3.1
 =====================
 !MCSCF STATE 3.1 Energy                      -686.322700247486
 Nuclear energy                                 58.79746788
 Kinetic energy                                686.40666960
 One electron energy                         -1066.74512873
 Two electron energy                           321.62496060
 Virial ratio                                    1.99987767
 
 !MCSCF STATE 3.1 Dipole moment                  0.00000000     0.00000000     0.09214600
 Dipole moment /Debye                            0.00000000     0.00000000     0.23421176
 
 Results for state 4.1
 =====================
 !MCSCF STATE 4.1 Energy                      -686.247619857494
 Nuclear energy                                 58.79746788
 Kinetic energy                                686.69305776
 One electron energy                         -1066.26837576
 Two electron energy                           321.22328803
 Virial ratio                                    1.99935133
 
 !MCSCF STATE 4.1 Dipole moment                  0.00000000     0.00000000     1.72243745
 Dipole moment /Debye                            0.00000000     0.00000000     4.37799931
 
 State-averaged charge density matrix saved on record 2140.2 (density set 1)
 
 Expectation values: (only non-zero values are shown)
 
 !MCSCF expec                       <1.1|DMZ|1.1>     0.253411077564 au =     0.644106712666 Debye
 !MCSCF expec                       <2.1|DMZ|2.1>     0.040610738469 au =     0.103222201277 Debye
 !MCSCF expec                       <3.1|DMZ|3.1>     0.092145995350 au =     0.234211758701 Debye
 !MCSCF expec                       <4.1|DMZ|4.1>     1.722437446558 au =     4.377999305085 Debye
 
 Transition values: (only non-zero values with the ground state are shown)
 
 !MCSCF trans                       <1.1|DMZ|3.1>     0.023605159842 au =     0.059998331778 Debye
 
 
 Natural orbital dump (state averaged) at molpro section 2140.2 (Orbital set 2)
 
 Reoptimze the CI vectors with natural orbitals 
 
 CI Coefficients of symmetry 1
 =============================
 
 22aa 20 20     -0.00267035     -0.00000000      0.91510324     -0.00000000
 2220 aa 20      0.68904100     -0.68909441     -0.00351503     -0.00233909
 2220 20 aa      0.68904100      0.68909441     -0.00351503      0.00233909
 2220 ab aa     -0.01642846     -0.04535524     -0.01132559      0.52232344
 2220 aa ab     -0.01642846      0.04535524     -0.01132559     -0.52232344
 2220 aa ba      0.01642846     -0.05432324      0.01132559     -0.45687905
 2220 ba aa      0.01642846      0.05432324      0.01132559      0.45687905
 22aa 20 ba     -0.01485414     -0.01943625     -0.12933757      0.01808431
 22aa ba 20     -0.01485414      0.01943625     -0.12933757     -0.01808431
 22aa 02 20      0.00775924     -0.00505034     -0.11358072     -0.00372056
 22aa 20 02      0.00775924      0.00505034     -0.11358072      0.00372056
 2a2a ba 20     -0.00776812      0.00599139     -0.09553979     -0.01670396
 2a2a 20 ba     -0.00776812     -0.00599139     -0.09553979      0.01670396
 2aa0 22 20     -0.00981964      0.00996317      0.09004771     -0.00185719
 2aa0 20 22     -0.00981964     -0.00996317      0.09004771      0.00185719
 2a2a 20 20     -0.04943592     -0.00000000     -0.08170816      0.00000000
 22aa ab ba      0.00187544      0.00211715      0.07511935      0.00775846
 22aa ba ab      0.00187544     -0.00211715      0.07511935     -0.00775846
 2220 02 aa     -0.07427207     -0.04587750      0.00692403     -0.01917759
 2220 aa 02     -0.07427207      0.04587750      0.00692403      0.01917759
 2aa2 20 20     -0.00062226     -0.00000000     -0.07022454      0.00000000
 2202 20 aa     -0.05665820     -0.05724874      0.00336377      0.00125101
 2202 aa 20     -0.05665820      0.05724874      0.00336377     -0.00125101
 22ba aa ba     -0.02846937      0.02534759     -0.00561062     -0.05673987
 22ba ba aa     -0.02846937     -0.02534759     -0.00561062      0.05673987
 22ba ab aa      0.01806441      0.01968464      0.00278554      0.05462279
 22ba aa ab      0.01806441     -0.01968464      0.00278554     -0.05462279
 22ab aa 20      0.04783249     -0.05297864      0.05455541      0.02243154
 22ab 20 aa      0.04783249      0.05297864      0.05455541     -0.02243154
 20aa 22 20     -0.00193194     -0.00038131     -0.05160233     -0.00009143
 20aa 20 22     -0.00193194      0.00038131     -0.05160233      0.00009143
 2a2a ab 20     -0.02346483      0.02694081      0.05097282     -0.01680569
 2a2a 20 ab     -0.02346483     -0.02694081      0.05097282      0.01680569
 2a0a 22 20      0.00203908      0.00183190      0.05034219     -0.00046481
 2a0a 20 22      0.00203908     -0.00183190      0.05034219      0.00046481
 
 Energy:      -686.45305931   -686.43088109   -686.32270025   -686.24761986
 


 **********************************************************************************************************************************
 DATASETS  * FILE   NREC   LENGTH (MB)   RECORD NAMES
              1      21      558.15       500      700      610      701      900      950      970     1000      129      960   
                                          VAR     GEOM    BASINP    GEOM    SYMINP    ZMAT    AOBASIS   BASIS     P2S    ABASIS    
                                         1100     1400     1410     1200     1210     1080     1600     1650     1300     1700   
                                           S        T        V       H0       H01     AOSYM     SMH    MOLCAS    ERIS     OPER   
                                         1380   
                                         JKOP   

              2       8       18.38       500      610      700     1000      520     2100     2140      701   
                                          VAR    BASINP    GEOM     BASIS   MCVARS     RHF     MCSCF    GEOM   

 PROGRAMS   *        TOTAL     MULTI       INT   RESTART
 CPU TIMES  *        37.18      2.34     34.74      0.00
 REAL TIME  *        38.67 SEC
 DISK USED  *         1.79 GB
 **********************************************************************************************************************************


 PROGRAM * CI (Multireference internally contracted CI)     Authors: H.-J. Werner, P.J. Knowles, 1987


 Convergence thresholds:  THRVAR = 1.00D-08  THRDEN = 1.00D-06

 Number of optimized states: 3  Roots:    1   2   3
 Number of reference states: 3  Roots:    1   2   3

 Program parameters:       NSTATE=  3    NSTATI=  4    NSTATR=  3    NCEPA = -1    NOKOP =  0    ITRDM =  0    ITRANS=  0
                           IDIP  =200    MAXIT =250    MAXITI=250    MAXDAV=  9    MAXVI = 12    NOSING=  0    NOPAIR=  0
                           MXSHRF=  5    IKCPS =  0    IOPTGM=  2    IOPTOR=  0    REFOPT=  1    IAVDEN=  0    IDELCG=  1
                           IREST =  0    NATORB=  0    IPUNRF=  0    ISEP  =  0    OLDDEN=  0    NSTPRI=  1    GPSFLI= -1
                           CLUSTE=  0    CLOSED=  1    ILSTYP=  0    ITRLS =  0    ICCSD =  0    LOCAL =  0    IBASO =  0
                           MP    =  0    ITEDIS=  2    INCDIS=  1    MAXDIS=  6    ITYDIS=  1    BRUECK=  0    IBRSTR=  3
                           INCBRK=  1    TRIPLE=  0    ICCTYP=  2    IHPPD =  0    ICCNEW=  0    I3EXT = -1    IDEB  =  0
                           IDLEIG=  1    IDFTYP=  1    IMP3  =  0    IPROCS=  0    NOINT =  0    NOREF =  1    IMP2G =  0
                           IHINT =  0    IFDIA =  0    ISPARO=  1    JKSYM =  0    CPHF  =  0    MP2D  = -1    DKINT =  0
                           NPKEX =  1    DRVK  =  1    HLSTRA=  1    WIGNER=  1    DIIS_C=  1    MAXIT_= 50    MATEL =  0
                           SPDEG =  1    MEMCPH=  0    DISM  =  1    KDCPMA=  5    IKDCP_=  0    IREDTH=  0    USECS =  0
                           IPROCC=  0    I3SAVE=  1    IKDCP =  1    USECI =  0    OLDPAI=  0    IPROCI=  0    KEEPCL=  1
                           DISCON=  0    SHIFTE=  0    DIISIN=  0    MOLCAS=  0    MEM_PT=  0    RECORD=  0    RS2C  =  0
                           KEXT  = -1    CIPT2 =  0    DECP0S=  0    I4EXT = -1    NATCOR=  0    RIMP2 =  0    DDCI  = -1
                           IPOLAR=  0

 Reference symmetry:                   1   Triplet 
 Number of electrons:                 30
 Maximum number of shells:             5
 Maximum number of spin couplings:    90

 Reference space:      184 conf      360 CSFs
 N elec internal:      728 conf     1512 CSFs
 N-1 el internal:     1016 conf     3696 CSFs
 N-2 el internal:     1091 conf     7140 CSFs

 Number of electrons in valence space:                     10
 Maximum number of open shell orbitals in reference space:  6
 Maximum number of open shell orbitals in internal spaces: 10


 Number of core orbitals:          10 (   6   2   2   0 )
 Number of active  orbitals:        8 (   4   2   2   0 )
 Number of external orbitals:     244 (  86  60  60  38 )

 Molecular orbitals read from record     2140.2  Type=MCSCF/NATURAL (state averaged)

 Valence orbitals related to previous ones by unitary transformation. Operators transformed.


 Number of p-space configurations:  18

 Reference wavefunction optimized for reference space (refopt=1)

 State     Reference Energy 
     1      -686.45305931
     2      -686.43088109
     3      -686.32270025
     4      -686.24761986

 Number of blocks in overlap matrix:     8   Smallest eigenvalue:  0.17D-02
 Number of N-2 electron functions:     192
 Number of N-1 electron functions:    3696

 Number of internal configurations:                  360
 Number of singly external configurations:        226032
 Number of doubly external configurations:       1459440
 Total number of contracted configurations:      1685832
 Total number of uncontracted configurations:   53355776

 Diagonal Coupling coefficients finished.               Storage:  341663 words, CPU-Time:      0.09 seconds.
 Energy denominators for pairs finished in 1 passes.    Storage:  468902 words, CPU-time:      0.02 seconds.

  ITER. STATE  ROOT     SQ.NORM     CORR.ENERGY   TOTAL ENERGY   ENERGY CHANGE       DEN1      VAR(S)    VAR(P)      TIME
    1     1     1     1.00000000     0.00000000  -686.45305931     0.00000000    -0.24604676  0.59D-01  0.59D-01     0.59
    1     2     2     1.00000000     0.00000000  -686.43088109     0.00000000    -0.25674901  0.67D-01  0.60D-01     0.59
    1     3     3     1.00000000     0.00000000  -686.32270025    -0.00000000    -0.25143422  0.65D-01  0.64D-01     0.59
    2     1     1     1.10585854    -0.23339844  -686.68645776    -0.23339844    -0.00612663  0.14D-02  0.13D-02    16.07
    2     2     2     1.11082995    -0.23971645  -686.67059754    -0.23971645    -0.00685540  0.17D-02  0.14D-02    16.07
    2     3     3     1.10939342    -0.23244371  -686.55514395    -0.23244371    -0.00747303  0.25D-02  0.14D-02    16.07
    3     1     1     1.11330533    -0.24017116  -686.69323047    -0.00677271    -0.00042779  0.10D-03  0.86D-04    31.80
    3     2     2     1.11820658    -0.24717770  -686.67805879    -0.00746125    -0.00047089  0.12D-03  0.96D-04    31.80
    3     3     3     1.11763554    -0.24008955  -686.56278980    -0.00764585    -0.00069925  0.31D-03  0.11D-03    31.80
    4     1     1     1.11588298    -0.24063518  -686.69369450    -0.00046403    -0.00004610  0.14D-04  0.75D-05    47.52
    4     2     2     1.12133013    -0.24769868  -686.67857977    -0.00052099    -0.00004942  0.15D-04  0.82D-05    47.52
    4     3     3     1.12223654    -0.24082295  -686.56352319    -0.00073339    -0.00010341  0.54D-04  0.13D-04    47.52
    5     1     1     1.11635560    -0.24068218  -686.69374149    -0.00004700    -0.00000637  0.19D-05  0.98D-06    63.14
    5     2     2     1.12194901    -0.24774931  -686.67863040    -0.00005063    -0.00000717  0.22D-05  0.11D-05    63.14
    5     3     3     1.12411162    -0.24093819  -686.56363844    -0.00011524    -0.00002362  0.14D-04  0.24D-05    63.14
    6     1     1     1.11640801    -0.24068846  -686.69374777    -0.00000628    -0.00000084  0.26D-06  0.13D-06    78.75
    6     2     2     1.12203137    -0.24775632  -686.67863741    -0.00000701    -0.00000095  0.31D-06  0.15D-06    78.75
    6     3     3     1.12473612    -0.24096376  -686.56366400    -0.00002557    -0.00000574  0.34D-05  0.54D-06    78.75
    7     1     1     1.11643963    -0.24068928  -686.69374860    -0.00000082    -0.00000013  0.48D-07  0.19D-07    94.35
    7     2     2     1.12207868    -0.24775726  -686.67863835    -0.00000094    -0.00000015  0.55D-07  0.22D-07    94.35
    7     3     3     1.12498504    -0.24096952  -686.56366977    -0.00000577    -0.00000156  0.10D-05  0.13D-06    94.35
    8     1     1     1.11645990    -0.24068942  -686.69374873    -0.00000014    -0.00000002  0.93D-08  0.31D-08   109.91
    8     2     2     1.12210723    -0.24775742  -686.67863850    -0.00000015    -0.00000003  0.10D-07  0.36D-08   109.91
    8     3     3     1.12513519    -0.24097109  -686.56367133    -0.00000156    -0.00000047  0.31D-06  0.37D-07   109.91
    9     1     1     1.11646655    -0.24068944  -686.69374876    -0.00000002    -0.00000001  0.22D-08  0.52D-09   125.46
    9     2     2     1.12211642    -0.24775744  -686.67863853    -0.00000003    -0.00000001  0.22D-08  0.60D-09   125.46
    9     3     3     1.12522337    -0.24097157  -686.56367182    -0.00000048    -0.00000014  0.90D-07  0.11D-07   125.46
   10     1     1     1.11646660    -0.24068944  -686.69374876    -0.00000000    -0.00000001  0.21D-08  0.51D-09   133.79
   10     2     2     1.12211642    -0.24775744  -686.67863853    -0.00000000    -0.00000001  0.22D-08  0.60D-09   133.79
   10     3     3     1.12530604    -0.24097175  -686.56367200    -0.00000018    -0.00000002  0.10D-07  0.16D-08   133.79
   11     1     1     1.11646663    -0.24068944  -686.69374876    -0.00000000    -0.00000001  0.21D-08  0.51D-09   142.07
   11     2     2     1.12211642    -0.24775744  -686.67863853     0.00000000    -0.00000001  0.22D-08  0.60D-09   142.07
   11     3     3     1.12531469    -0.24097177  -686.56367202    -0.00000002    -0.00000000  0.86D-09  0.20D-09   142.07


 =====================================
 Analysis of CPU times by interactions
 =====================================

       I      S      P

 I   0.1%
 S   0.1%   1.9%
 P   0.5%   9.5%  53.6%

 Initialization:   0.3%
 Other:           33.9%

 Total CPU:      142.1 seconds
 =====================================



 gnormi=  0.89568284  gnorms=  0.04747353  gnormp=  0.05684364  gnorm=  1.00000000
 ecorri= -0.21558140  ecorrs= -0.01142630  ecorrp= -0.01368174  ecorr= -0.24068944

 gnormi=  0.89117312  gnorms=  0.05165202  gnormp=  0.05717485  gnorm=  1.00000000
 ecorri= -0.22079477  ecorrs= -0.01279738  ecorrp= -0.01416529  ecorr= -0.24775744

 gnormi=  0.88864032  gnorms=  0.05434277  gnormp=  0.05701692  gnorm=  1.00000000
 ecorri= -0.21413723  ecorrs= -0.01309438  ecorrp= -0.01374016  ecorr= -0.24097177

 Reference coefficients greater than 0.0500000
 =============================================
 22//2020           0.0056269   0.0000000   0.8810791
 2220//20           0.6553441   0.6524081  -0.0098328
 222020//           0.6553441  -0.6524080  -0.0098328
 22//20\/          -0.0230917   0.0252189  -0.1133274
 22//\/20          -0.0230917  -0.0252189  -0.1133274
 22//0220           0.0050660   0.0043122  -0.0986286
 22//2002           0.0050660  -0.0043122  -0.0986286
 2/2/2020          -0.0406256   0.0000000  -0.0893617
 2/2/20\/          -0.0163390   0.0142541  -0.0803889
 2/2/\/20          -0.0163390  -0.0142541  -0.0803888
 2220/\//          -0.0430172   0.0795315  -0.0104493
 2//02022          -0.0081115   0.0083169   0.0664677
 2//02220          -0.0081114  -0.0083169   0.0664677
 2//22020          -0.0002508   0.0000000  -0.0629702
 22///\/\           0.0020629   0.0018665  -0.0617108
 22///\\/           0.0046685  -0.0003982   0.0609464
 22//\//\           0.0046685   0.0056775   0.0609463
 2220///\          -0.0351233  -0.0585445  -0.0085318
 2220//02          -0.0571389  -0.0340500   0.0051718
 222002//          -0.0571389   0.0340498   0.0051718
 2220//\/           0.0248359   0.0549575   0.0060329
 2/2//\20          -0.0193802  -0.0225124   0.0520023
 2/2/20/\          -0.0193802   0.0225124   0.0520023

 Coefficients of fixed reference functions:
 ==========================================

 State      Coefficients
 1           0.945084    0.000000    0.008054
 2           0.000000    0.943129    0.000000
 3          -0.009810    0.000000    0.940526

 Coefficients of rotated reference functions:
 ============================================

 State      Coefficients
 1           0.945118    0.000000   -0.000899
 2           0.000000    0.943129    0.000000
 3          -0.000899    0.000000    0.940577


 RESULTS FOR STATE 1.1
 =====================

 Coefficient of reference function:   C(0) = 0.94508378 (fixed)   0.94640522 (relaxed)   0.94511767 (rotated)

 Energy contributions of configuration classes

 CLASS          SQ.NORM        ECORR1        ECORR2
 +++++++++++++++++++++++++++++++++++++++++++++++++++
 Internals    0.00272649   -0.00000118   -0.14712953
 Singles      0.05314712   -0.07580815   -0.07914173
 Pairs        0.06363706   -0.00082445   -0.01441818
 Total        1.11951067   -0.07663377   -0.24068944
 +++++++++++++++++++++++++++++++++++++++++++++++++++


 Reference energy                    -686.45304761
 Nuclear energy                        58.79746788
 Kinetic energy                       686.90472600
 One electron energy                -1067.59607841
 Two electron energy                  322.10486178
 Virial quotient                       -0.99969286
 Correlation energy                    -0.24070114
 !MRCI STATE 1.1 Energy              -686.693748755209

 Properties without orbital relaxation:

 !MRCI STATE 1.1 Dipole moment          0.00000000     0.00000000     0.20885838
 Dipole moment /Debye                   0.00000000     0.00000000     0.53086505

 Cluster corrected energies          -686.72251511 (Davidson, fixed reference)
 Cluster corrected energies          -686.72178241 (Davidson, relaxed reference)
 Cluster corrected energies          -686.72251511 (Davidson, rotated reference)

 Cluster corrected energies          -686.71662557 (Pople, fixed reference)
 Cluster corrected energies          -686.71601041 (Pople, relaxed reference)
 Cluster corrected energies          -686.71662557 (Pople, rotated reference)



 RESULTS FOR STATE 2.1
 =====================

 Coefficient of reference function:   C(0) = 0.94312895 (fixed)   0.94401966 (relaxed)   0.94312895 (rotated)

 Energy contributions of configuration classes

 CLASS          SQ.NORM        ECORR1        ECORR2
 +++++++++++++++++++++++++++++++++++++++++++++++++++
 Internals    0.00188975    0.00000000   -0.14921757
 Singles      0.05806911   -0.08046973   -0.08437458
 Pairs        0.06427808   -0.00000001   -0.01416529
 Total        1.12423694   -0.08046974   -0.24775744
 +++++++++++++++++++++++++++++++++++++++++++++++++++


 Reference energy                    -686.43088109
 Nuclear energy                        58.79746788
 Kinetic energy                       686.92257881
 One electron energy                -1067.62435226
 Two electron energy                  322.14824586
 Virial quotient                       -0.99964488
 Correlation energy                    -0.24775744
 !MRCI STATE 2.1 Energy              -686.678638531202

 Properties without orbital relaxation:

 !MRCI STATE 2.1 Dipole moment          0.00000000     0.00000000     0.10300021
 Dipole moment /Debye                   0.00000000     0.00000000     0.26180041

 Cluster corrected energies          -686.70941916 (Davidson, fixed reference)
 Cluster corrected energies          -686.70889378 (Davidson, relaxed reference)
 Cluster corrected energies          -686.70941916 (Davidson, rotated reference)

 Cluster corrected energies          -686.70317256 (Pople, fixed reference)
 Cluster corrected energies          -686.70272940 (Pople, relaxed reference)
 Cluster corrected energies          -686.70317256 (Pople, rotated reference)



 RESULTS FOR STATE 3.1
 =====================

 Coefficient of reference function:   C(0) = 0.94052634 (fixed)   0.94267721 (relaxed)   0.94057706 (rotated)

 Energy contributions of configuration classes

 CLASS          SQ.NORM        ECORR1        ECORR2
 +++++++++++++++++++++++++++++++++++++++++++++++++++
 Internals    0.00447064   -0.00000117   -0.00097885
 Singles      0.06142611   -0.07710759   -0.08131033
 Pairs        0.06444882   -0.16383504   -0.15868260
 Total        1.13034556   -0.24094380   -0.24097177
 +++++++++++++++++++++++++++++++++++++++++++++++++++


 Reference energy                    -686.32271195
 Nuclear energy                        58.79746788
 Kinetic energy                       686.59270766
 One electron energy                -1066.63597419
 Two electron energy                  321.27483430
 Virial quotient                       -0.99995771
 Correlation energy                    -0.24096007
 !MRCI STATE 3.1 Energy              -686.563672016257

 Properties without orbital relaxation:

 !MRCI STATE 3.1 Dipole moment          0.00000000     0.00000000    -0.08480877
 Dipole moment /Debye                   0.00000000     0.00000000    -0.21556238

 Cluster corrected energies          -686.59508009 (Davidson, fixed reference)
 Cluster corrected energies          -686.59386785 (Davidson, relaxed reference)
 Cluster corrected energies          -686.59508009 (Davidson, rotated reference)

 Cluster corrected energies          -686.58877912 (Pople, fixed reference)
 Cluster corrected energies          -686.58775231 (Pople, relaxed reference)
 Cluster corrected energies          -686.58877912 (Pople, rotated reference)


 !MRCI trans          <2.1|DMZ|1.1>    -0.000001840751 au =    -0.000004678722 Debye

 !MRCI trans          <3.1|DMZ|1.1>     0.013383649892 au =     0.034017844912 Debye

 !MRCI trans          <3.1|DMZ|2.1>     0.000001263898 au =     0.000003212508 Debye


 **********************************************************************************************************************************
 DATASETS  * FILE   NREC   LENGTH (MB)   RECORD NAMES
              1      21      558.15       500      700      610      701      900      950      970     1000      129      960   
                                          VAR     GEOM    BASINP    GEOM    SYMINP    ZMAT    AOBASIS   BASIS     P2S    ABASIS    
                                         1100     1400     1410     1200     1210     1080     1600     1650     1300     1700   
                                           S        T        V       H0       H01     AOSYM     SMH    MOLCAS    ERIS     OPER   
                                         1380   
                                         JKOP   

              2       8       18.38       500      610      700     1000      520     2100     2140      701   
                                          VAR    BASINP    GEOM     BASIS   MCVARS     RHF     MCSCF    GEOM   

 PROGRAMS   *        TOTAL        CI     MULTI       INT   RESTART
 CPU TIMES  *       179.90    142.72      2.34     34.74      0.00
 REAL TIME  *       186.06 SEC
 DISK USED  *         1.79 GB
 **********************************************************************************************************************************
 SETTING E1(1)          =      -686.69374876  AU                              
 SETTING E2(1)          =      -686.67863853  AU                              
 SETTING E3(1)          =      -686.56367202  AU                              

 DO I                   =         2.00000000   


 Using spherical harmonics

 Library entry SI     S aug-cc-pV5Z          selected for orbital group  1
 Library entry SI     P aug-cc-pV5Z          selected for orbital group  1
 Library entry SI     D aug-cc-pV5Z          selected for orbital group  1
 Library entry SI     F aug-cc-pV5Z          selected for orbital group  1
 Library entry SI     G aug-cc-pV5Z          selected for orbital group  1
 Library entry SI     H aug-cc-pV5Z          selected for orbital group  1
 Library entry S      S aug-cc-pV5Z          selected for orbital group  2
 Library entry S      P aug-cc-pV5Z          selected for orbital group  2
 Library entry S      D aug-cc-pV5Z          selected for orbital group  2
 Library entry S      F aug-cc-pV5Z          selected for orbital group  2
 Library entry S      G aug-cc-pV5Z          selected for orbital group  2
 Library entry S      H aug-cc-pV5Z          selected for orbital group  2


 PROGRAM * SEWARD (Integral evaluation for generally contracted gaussian basis sets)     Author: Roland Lindh, 1990

 Geometry written to block  1 of record 701

 Orientation using atomic masses  
 Molecule type: Linear
 Symmetry elements: X,Y
 Rotational constants:       8.3556942      8.3556942      0.0000000 GHz  (calculated with average atomic masses)

 Point group  C2v 



 ATOMIC COORDINATES

 NR  ATOM    CHARGE       X              Y              Z

   1  SI     14.00    0.000000000    0.000000000   -2.024674918
   2  S      16.00    0.000000000    0.000000000    1.773674592

 Bond lengths in Bohr (Angstrom)

 1-2  3.798349510
     ( 2.010000000)

 NUCLEAR CHARGE:                   30
 NUMBER OF PRIMITIVE AOS:         434
 NUMBER OF SYMMETRY AOS:          324
 NUMBER OF CONTRACTIONS:          262   (   96A1  +   64B1  +   64B2  +   38A2  )
 NUMBER OF INNER CORE ORBITALS:     2   (    2A1  +    0B1  +    0B2  +    0A2  )
 NUMBER OF OUTER CORE ORBITALS:     8   (    4A1  +    2B1  +    2B2  +    0A2  )
 NUMBER OF VALENCE ORBITALS:        8   (    4A1  +    2B1  +    2B2  +    0A2  )


 NUCLEAR REPULSION ENERGY   58.97298271

 EXTRA SYMMETRY OF AOS IN SYMMETRY 1:   1 1 1 1 1 1 1 1 1 1   1 1 1 1 1 1 2 1 2 1   2 1 2 1 2 1 2 1 2 1   2 1 2 1 3 2 1 3 2 1
                                        3 2 2 3 1 2 3 1 1 1   1 1 1 1 1 1 1 1 1 1   1 1 1 1 2 1 2 1 2 1   2 1 2 1 2 1 2 1 2 1
                                        2 1 3 2 1 3 2 1 3 2   2 3 1 2 3 1
 EXTRA SYMMETRY OF AOS IN SYMMETRY 2:   1 1 1 1 1 1 1 1 1 1   1 1 1 2 1 2 1 2 1 2   1 2 1 2 1 2 1 2 3 1   2 3 1 1 1 1 1 1 1 1
                                        1 1 1 1 1 2 1 2 1 2   1 2 1 2 1 2 1 2 1 2   3 1 2 3
 EXTRA SYMMETRY OF AOS IN SYMMETRY 3:   1 1 1 1 1 1 1 1 1 1   1 1 1 2 1 2 1 2 1 2   1 2 1 2 1 2 1 2 3 1   2 3 1 1 1 1 1 1 1 1
                                        1 1 1 1 1 2 1 2 1 2   1 2 1 2 1 2 1 2 1 2   3 1 2 3
 EXTRA SYMMETRY OF AOS IN SYMMETRY 4:   1 1 1 1 1 1 1 1 1 1   2 1 2 1 2 2 1 2 1 1   1 1 1 1 1 1 1 1 1 2   1 2 1 2 2 1 2 1

 Eigenvalues of metric

         1 0.695E-05 0.821E-05 0.176E-04 0.252E-04 0.394E-04 0.233E-03 0.355E-03 0.105E-02
         2 0.897E-05 0.996E-05 0.256E-03 0.176E-02 0.411E-02 0.953E-02 0.162E-01 0.254E-01
         3 0.897E-05 0.996E-05 0.256E-03 0.176E-02 0.411E-02 0.953E-02 0.162E-01 0.254E-01
         4 0.275E-02 0.122E-01 0.302E-01 0.547E-01 0.598E-01 0.682E-01 0.827E-01 0.136E+00


 Contracted 2-electron integrals neglected if value below      1.0D-12
 AO integral compression algorithm  1   Integral accuracy      1.0D-12

     637.534 MB (compressed) written to integral file ( 44.0%)


 NUMBER OF SORTED TWO-ELECTRON INTEGRALS:  150955559.     BUFFER LENGTH:  32768
 NUMBER OF SEGMENTS:  10  SEGMENT LENGTH:   15998976      RECORD LENGTH: 524288

 Memory used in sort:      16.56 MW

 SORT1 READ   181316810. AND WROTE   100589813. INTEGRALS IN    293 RECORDS. CPU TIME:     2.01 SEC, REAL TIME:     2.47 SEC
 SORT2 READ   100589813. AND WROTE   150955559. INTEGRALS IN   2432 RECORDS. CPU TIME:     1.50 SEC, REAL TIME:     1.76 SEC

 FILE SIZES:   FILE 1:   669.2 MBYTE,  FILE 4:  1229.0 MBYTE,   TOTAL:   1898.2 MBYTE

 OPERATOR DM      FOR CENTER  0  COORDINATES:    0.000000    0.000000    0.000000


 **********************************************************************************************************************************
 DATASETS  * FILE   NREC   LENGTH (MB)   RECORD NAMES
              1      20      523.36       500      700      610      701      900      950      970     1000      129      960   
                                          VAR     GEOM    BASINP    GEOM    SYMINP    ZMAT    AOBASIS   BASIS     P2S    ABASIS    
                                         1100     1400     1410     1200     1210     1080     1600     1650     1300     1700   
                                           S        T        V       H0       H01     AOSYM     SMH    MOLCAS    ERIS     OPER   

              2       8       18.38       500      610      700     1000      520     2100     2140      701   
                                          VAR    BASINP    GEOM     BASIS   MCVARS     RHF     MCSCF    GEOM   

 PROGRAMS   *        TOTAL       INT        CI     MULTI       INT   RESTART
 CPU TIMES  *       214.68     34.78    142.72      2.34     34.74      0.00
 REAL TIME  *       221.95 SEC
 DISK USED  *         1.79 GB
 **********************************************************************************************************************************

 PROGRAM * MULTI (Direct Multiconfiguration SCF)       Authors: P.J. Knowles, H.-J. Werner (1984)
                                                                D.A. Kreplin, P.J. Knowles, H.-J. Werner (2019)

 Number of closed-shell orbitals:  10 (   6   2   2   0 )
 Number of active  orbitals:        8 (   4   2   2   0 )
 Number of external orbitals:     244 (  86  60  60  38 )

 State symmetry 1

 Number of active electrons:  10    Spin symmetry=Triplet   Space symmetry=1
 Number of states:             4
 Number of CSFs:             360   (464 determinants, 1960 intermediate states)

 Molecular orbitals read from record     2140.2  Type=MCSCF/NATURAL (state averaged)

 EXTRA SYMMETRY OF MOS IN SYMMETRY 1:   1 1 1 1 1 1 1 1 1 1   1 1 1 2 1 1 1 2 1 2   1 2 1 1 1 2 1 2 1 3   1 2 1 2 1 2 1 3 1 2
                                        1 2 1 1 2 1 2 1 3 3   1 2 1 2 1 2 1 3 2 1   3 1 2 1 1 2 1 2 2 1   1 3 3 1 2 1 2 1 2 1
                                        1 3 2 3 1 2 1 2 1 1   2 1 1 1 1 1
 EXTRA SYMMETRY OF MOS IN SYMMETRY 2:   1 1 1 1 1 1 1 1 2 1   1 1 1 2 1 1 2 2 1 1   1 1 2 2 1 1 1 2 1 3   1 2 1 2 1 2 1 3 2 1
                                        1 2 1 2 1 1 1 2 3 1   2 1 1 2 1 2 3 2 1 1   1 1 1 1
 EXTRA SYMMETRY OF MOS IN SYMMETRY 3:   1 1 1 1 1 1 1 1 2 1   1 1 1 2 1 1 2 2 1 1   1 1 2 2 1 1 1 2 1 3   1 2 1 2 1 2 1 3 2 1
                                        1 2 1 2 1 1 1 2 3 1   2 1 1 2 1 2 3 2 1 1   1 1 1 1
 EXTRA SYMMETRY OF MOS IN SYMMETRY 4:   1 1 1 1 1 1 2 1 1 1   2 1 1 1 1 2 2 1 1 1   2 1 2 1 1 1 1 2 2 1   1 1 2 1 2 1 1 1

 Wavefunction dump at record             2140.2

 Convergence thresholds  0.10E-04 (gradient)  0.10E-05 (energy)

 Weight factors for state symmetry  1:    0.25000   0.25000   0.25000   0.25000
 
 Number of orbital rotations:  1372  ( 32 closed/active, 756 closed/virtual, 0 active/active, 584 active/virtual )
 Total number of variables:    3228
 
  Second-order MCSCF: L-BFGS accelerated
 
 ITER  MIC  NCI  NEG     ENERGY(VAR)    ENERGY(PROJ) ENERGY CHANGE       GRAD(0)  GRAD(ORB)   GRAD(CI)      STEP      TIME
   1   11   22    0   -686.36261827    -686.36262551   -0.00000723    0.00338941 0.00000388 0.00000134  0.69E-02      1.47
   2    9   13    0   -686.36262550    -686.36262550   -0.00000000    0.00000448 0.00000001 0.00000002  0.13E-04      2.86

 CONVERGENCE REACHED!  Final gradient:    0.00000001 ( 0.87E-08)
                       Final energy:   -686.36262550
 
 Results for state 1.1
 =====================
 !MCSCF STATE 1.1 Energy                      -686.452287192142
 Nuclear energy                                 58.97298271
 Kinetic energy                                686.78672387
 One electron energy                         -1067.90868610
 Two electron energy                           322.48341620
 Virial ratio                                    1.99951304
 
 !MCSCF STATE 1.1 Dipole moment                  0.00000000     0.00000000     0.26108236
 Dipole moment /Debye                            0.00000000     0.00000000     0.66360517
 
 Results for state 2.1
 =====================
 !MCSCF STATE 2.1 Energy                      -686.430031128038
 Nuclear energy                                 58.97298271
 Kinetic energy                                686.86039206
 One electron energy                         -1068.05817097
 Two electron energy                           322.65515714
 Virial ratio                                    1.99937344
 
 !MCSCF STATE 2.1 Dipole moment                  0.00000000     0.00000000     0.04931244
 Dipole moment /Debye                            0.00000000     0.00000000     0.12533973
 
 Results for state 3.1
 =====================
 !MCSCF STATE 3.1 Energy                      -686.322375890520
 Nuclear energy                                 58.97298271
 Kinetic energy                                686.40822029
 One electron energy                         -1067.07885779
 Two electron energy                           321.78349919
 Virial ratio                                    1.99987494
 
 !MCSCF STATE 3.1 Dipole moment                  0.00000000     0.00000000     0.10122767
 Dipole moment /Debye                            0.00000000     0.00000000     0.25729507
 
 Results for state 4.1
 =====================
 !MCSCF STATE 4.1 Energy                      -686.245807794133
 Nuclear energy                                 58.97298271
 Kinetic energy                                686.70250981
 One electron energy                         -1066.60820093
 Two electron energy                           321.38941042
 Virial ratio                                    1.99933493
 
 !MCSCF STATE 4.1 Dipole moment                  0.00000000     0.00000000     1.72858511
 Dipole moment /Debye                            0.00000000     0.00000000     4.39362511
 
 State-averaged charge density matrix saved on record 2140.2 (density set 1)
 
 Expectation values: (only non-zero values are shown)
 
 !MCSCF expec                       <1.1|DMZ|1.1>     0.261082360020 au =     0.663605167795 Debye
 !MCSCF expec                       <2.1|DMZ|2.1>     0.049312444201 au =     0.125339731132 Debye
 !MCSCF expec                       <3.1|DMZ|3.1>     0.101227670330 au =     0.257295074052 Debye
 !MCSCF expec                       <4.1|DMZ|4.1>     1.728585111490 au =     4.393625110746 Debye
 
 Transition values: (only non-zero values with the ground state are shown)
 
 !MCSCF trans                       <1.1|DMZ|3.1>     0.023806982681 au =     0.060511314267 Debye
 
 
 Natural orbital dump (state averaged) at molpro section 2140.2 (Orbital set 2)
 
 Reoptimze the CI vectors with natural orbitals 
 
 CI Coefficients of symmetry 1
 =============================
 
 22aa 20 20     -0.00385346      0.00000000      0.91547553      0.00000000
 2220 aa 20      0.68913938     -0.68921749     -0.00270323     -0.00247656
 2220 20 aa      0.68913938      0.68921749     -0.00270323      0.00247656
 2220 aa ab     -0.01663744      0.04534235     -0.01100855     -0.52210240
 2220 ab aa     -0.01663744     -0.04534235     -0.01100855      0.52210240
 2220 ba aa      0.01663744      0.05414000      0.01100855      0.45724856
 2220 aa ba      0.01663744     -0.05414000      0.01100855     -0.45724856
 22aa ba 20     -0.01479828      0.01934752     -0.12945602     -0.01875259
 22aa 20 ba     -0.01479828     -0.01934752     -0.12945602      0.01875259
 22aa 02 20      0.00799986     -0.00520156     -0.11326826     -0.00375489
 22aa 20 02      0.00799986      0.00520156     -0.11326826      0.00375489
 2a2a ba 20     -0.00773732      0.00600996     -0.09522407     -0.01672671
 2a2a 20 ba     -0.00773732     -0.00600996     -0.09522407      0.01672671
 2aa0 22 20     -0.00988158      0.00997386      0.08982820     -0.00187555
 2aa0 20 22     -0.00988158     -0.00997386      0.08982820      0.00187555
 2a2a 20 20     -0.04927146      0.00000000     -0.08172095     -0.00000000
 22aa ba ab      0.00178222     -0.00212183      0.07489105     -0.00778496
 22aa ab ba      0.00178222      0.00212183      0.07489105      0.00778496
 2220 02 aa     -0.07418302     -0.04596135      0.00662856     -0.01894837
 2220 aa 02     -0.07418302      0.04596135      0.00662856      0.01894837
 2aa2 20 20     -0.00059612     -0.00000000     -0.06982498      0.00000000
 2202 aa 20     -0.05651113      0.05706246      0.00352615     -0.00125550
 2202 20 aa     -0.05651113     -0.05706246      0.00352615      0.00125550
 22ba ba aa     -0.02820752     -0.02510520     -0.00562485      0.05643820
 22ba aa ba     -0.02820752      0.02510520     -0.00562485     -0.05643820
 22ab aa 20      0.04769060     -0.05274277      0.05476722      0.02290118
 22ab 20 aa      0.04769060      0.05274277      0.05476722     -0.02290118
 22ba aa ab      0.01767906     -0.01930957      0.00276038     -0.05430290
 22ba ab aa      0.01767906      0.01930957      0.00276038      0.05430290
 20aa 22 20     -0.00186602     -0.00036739     -0.05129589     -0.00009194
 20aa 20 22     -0.00186602      0.00036739     -0.05129589      0.00009194
 2a2a ab 20     -0.02334615      0.02679738      0.05083357     -0.01671813
 2a2a 20 ab     -0.02334615     -0.02679738      0.05083357      0.01671813
 2a0a 22 20      0.00201242      0.00181016      0.05026312     -0.00045309
 2a0a 20 22      0.00201242     -0.00181016      0.05026312      0.00045309
 
 Energy:      -686.45228719   -686.43003113   -686.32237589   -686.24580779
 


 **********************************************************************************************************************************
 DATASETS  * FILE   NREC   LENGTH (MB)   RECORD NAMES
              1      21      558.47       500      700      610      701      900      950      970     1000      129      960   
                                          VAR     GEOM    BASINP    GEOM    SYMINP    ZMAT    AOBASIS   BASIS     P2S    ABASIS    
                                         1100     1400     1410     1200     1210     1080     1600     1650     1300     1700   
                                           S        T        V       H0       H01     AOSYM     SMH    MOLCAS    ERIS     OPER   
                                         1380   
                                         JKOP   

              2       8       18.38       500      610      700     1000      520     2100     2140      701   
                                          VAR    BASINP    GEOM     BASIS   MCVARS     RHF     MCSCF    GEOM   

 PROGRAMS   *        TOTAL     MULTI       INT        CI     MULTI       INT   RESTART
 CPU TIMES  *       218.37      3.68     34.78    142.72      2.34     34.74      0.00
 REAL TIME  *       226.07 SEC
 DISK USED  *         1.79 GB
 **********************************************************************************************************************************


 PROGRAM * CI (Multireference internally contracted CI)     Authors: H.-J. Werner, P.J. Knowles, 1987


 Convergence thresholds:  THRVAR = 1.00D-08  THRDEN = 1.00D-06

 Number of optimized states: 3  Roots:    1   2   3
 Number of reference states: 3  Roots:    1   2   3

 Program parameters:       NSTATE=  3    NSTATI=  4    NSTATR=  3    NCEPA = -1    NOKOP =  0    ITRDM =  0    ITRANS=  0
                           IDIP  =200    MAXIT =250    MAXITI=250    MAXDAV=  9    MAXVI = 12    NOSING=  0    NOPAIR=  0
                           MXSHRF=  5    IKCPS =  0    IOPTGM=  2    IOPTOR=  0    REFOPT=  1    IAVDEN=  0    IDELCG=  1
                           IREST =  0    NATORB=  0    IPUNRF=  0    ISEP  =  0    OLDDEN=  0    NSTPRI=  1    GPSFLI= -1
                           CLUSTE=  0    CLOSED=  1    ILSTYP=  0    ITRLS =  0    ICCSD =  0    LOCAL =  0    IBASO =  0
                           MP    =  0    ITEDIS=  2    INCDIS=  1    MAXDIS=  6    ITYDIS=  1    BRUECK=  0    IBRSTR=  3
                           INCBRK=  1    TRIPLE=  0    ICCTYP=  2    IHPPD =  0    ICCNEW=  0    I3EXT = -1    IDEB  =  0
                           IDLEIG=  1    IDFTYP=  1    IMP3  =  0    IPROCS=  0    NOINT =  0    NOREF =  1    IMP2G =  0
                           IHINT =  0    IFDIA =  0    ISPARO=  1    JKSYM =  0    CPHF  =  0    MP2D  = -1    DKINT =  0
                           NPKEX =  1    DRVK  =  1    HLSTRA=  1    WIGNER=  1    DIIS_C=  1    MAXIT_= 50    MATEL =  0
                           SPDEG =  1    MEMCPH=  0    DISM  =  1    KDCPMA=  5    IKDCP_=  0    IREDTH=  0    USECS =  0
                           IPROCC=  0    I3SAVE=  1    IKDCP =  1    USECI =  0    OLDPAI=  0    IPROCI=  0    KEEPCL=  1
                           DISCON=  0    SHIFTE=  0    DIISIN=  0    MOLCAS=  0    MEM_PT=  0    RECORD=  0    RS2C  =  0
                           KEXT  = -1    CIPT2 =  0    DECP0S=  0    I4EXT = -1    NATCOR=  0    RIMP2 =  0    DDCI  = -1
                           IPOLAR=  0

 Reference symmetry:                   1   Triplet 
 Number of electrons:                 30
 Maximum number of shells:             5
 Maximum number of spin couplings:    90

 Reference space:      184 conf      360 CSFs
 N elec internal:      728 conf     1512 CSFs
 N-1 el internal:     1016 conf     3696 CSFs
 N-2 el internal:     1091 conf     7140 CSFs

 Number of electrons in valence space:                     10
 Maximum number of open shell orbitals in reference space:  6
 Maximum number of open shell orbitals in internal spaces: 10


 Number of core orbitals:          10 (   6   2   2   0 )
 Number of active  orbitals:        8 (   4   2   2   0 )
 Number of external orbitals:     244 (  86  60  60  38 )

 Molecular orbitals read from record     2140.2  Type=MCSCF/NATURAL (state averaged)

 Valence orbitals related to previous ones by unitary transformation. Operators transformed.


 Number of p-space configurations:  18

 Reference wavefunction optimized for reference space (refopt=1)

 State     Reference Energy 
     1      -686.45228719
     2      -686.43003113
     3      -686.32237589
     4      -686.24580779

 Number of blocks in overlap matrix:     8   Smallest eigenvalue:  0.18D-02
 Number of N-2 electron functions:     192
 Number of N-1 electron functions:    3696

 Number of internal configurations:                  360
 Number of singly external configurations:        226032
 Number of doubly external configurations:       1459440
 Total number of contracted configurations:      1685832
 Total number of uncontracted configurations:   53355776

 Diagonal Coupling coefficients finished.               Storage:  341663 words, CPU-Time:      0.10 seconds.
 Energy denominators for pairs finished in 1 passes.    Storage:  468902 words, CPU-time:      0.02 seconds.

  ITER. STATE  ROOT     SQ.NORM     CORR.ENERGY   TOTAL ENERGY   ENERGY CHANGE       DEN1      VAR(S)    VAR(P)      TIME
    1     1     1     1.00000000     0.00000000  -686.45228719     0.00000000    -0.24615234  0.59D-01  0.59D-01     0.59
    1     2     2     1.00000000     0.00000000  -686.43003113     0.00000000    -0.25689297  0.67D-01  0.60D-01     0.59
    1     3     3     1.00000000     0.00000000  -686.32237589     0.00000000    -0.25145873  0.65D-01  0.64D-01     0.59
    2     1     1     1.10581639    -0.23348640  -686.68577359    -0.23348640    -0.00613400  0.14D-02  0.13D-02    16.06
    2     2     2     1.11080967    -0.23982123  -686.66985236    -0.23982123    -0.00686680  0.17D-02  0.14D-02    16.06
    2     3     3     1.10934217    -0.23248983  -686.55486573    -0.23248983    -0.00747744  0.25D-02  0.14D-02    16.06
    3     1     1     1.11324967    -0.24026902  -686.69255621    -0.00678262    -0.00042732  0.10D-03  0.87D-04    31.85
    3     2     2     1.11816988    -0.24729568  -686.67732680    -0.00747444    -0.00047082  0.12D-03  0.96D-04    31.85
    3     3     3     1.11758074    -0.24014278  -686.56251867    -0.00765294    -0.00069857  0.31D-03  0.11D-03    31.85
    4     1     1     1.11582866    -0.24073356  -686.69302075    -0.00046454    -0.00004578  0.14D-04  0.75D-05    47.62
    4     2     2     1.12129696    -0.24781757  -686.67784870    -0.00052190    -0.00004912  0.15D-04  0.82D-05    47.62
    4     3     3     1.12219492    -0.24087691  -686.56325280    -0.00073413    -0.00010340  0.55D-04  0.13D-04    47.62
    5     1     1     1.11629808    -0.24078035  -686.69306755    -0.00004679    -0.00000631  0.19D-05  0.97D-06    63.21
    5     2     2     1.12191309    -0.24786803  -686.67789916    -0.00005046    -0.00000711  0.22D-05  0.11D-05    63.21
    5     3     3     1.12408168    -0.24099248  -686.56336837    -0.00011558    -0.00002369  0.14D-04  0.24D-05    63.21
    6     1     1     1.11634958    -0.24078659  -686.69307378    -0.00000623    -0.00000083  0.26D-06  0.13D-06    78.78
    6     2     2     1.12199431    -0.24787499  -686.67790612    -0.00000696    -0.00000094  0.30D-06  0.15D-06    78.78
    6     3     3     1.12471105    -0.24101818  -686.56339407    -0.00002570    -0.00000575  0.34D-05  0.55D-06    78.78
    7     1     1     1.11638103    -0.24078740  -686.69307459    -0.00000081    -0.00000013  0.47D-07  0.19D-07    94.32
    7     2     2     1.12204137    -0.24787593  -686.67790706    -0.00000094    -0.00000015  0.54D-07  0.22D-07    94.32
    7     3     3     1.12496216    -0.24102398  -686.56339987    -0.00000580    -0.00000157  0.10D-05  0.13D-06    94.32
    8     1     1     1.11640115    -0.24078753  -686.69307473    -0.00000013    -0.00000002  0.91D-08  0.31D-08   109.80
    8     2     2     1.12206971    -0.24787608  -686.67790721    -0.00000015    -0.00000003  0.98D-08  0.36D-08   109.80
    8     3     3     1.12511382    -0.24102555  -686.56340144    -0.00000157    -0.00000047  0.31D-06  0.37D-07   109.80
    9     1     1     1.11640772    -0.24078756  -686.69307475    -0.00000002    -0.00000001  0.21D-08  0.51D-09   125.35
    9     2     2     1.12207877    -0.24787610  -686.67790723    -0.00000003    -0.00000001  0.21D-08  0.59D-09   125.35
    9     3     3     1.12520273    -0.24102604  -686.56340193    -0.00000049    -0.00000014  0.91D-07  0.11D-07   125.35
   10     1     1     1.11640778    -0.24078756  -686.69307475    -0.00000000    -0.00000000  0.21D-08  0.50D-09   133.63
   10     2     2     1.12207877    -0.24787610  -686.67790723    -0.00000000    -0.00000001  0.21D-08  0.59D-09   133.63
   10     3     3     1.12528629    -0.24102622  -686.56340211    -0.00000018    -0.00000002  0.10D-07  0.16D-08   133.63
   11     1     1     1.11640781    -0.24078756  -686.69307475    -0.00000000    -0.00000000  0.21D-08  0.50D-09   142.01
   11     2     2     1.12207877    -0.24787610  -686.67790723     0.00000000    -0.00000001  0.21D-08  0.59D-09   142.01
   11     3     3     1.12529505    -0.24102624  -686.56340213    -0.00000002    -0.00000000  0.90D-09  0.21D-09   142.01


 =====================================
 Analysis of CPU times by interactions
 =====================================

       I      S      P

 I   0.1%
 S   0.1%   1.9%
 P   0.5%   9.5%  53.7%

 Initialization:   0.3%
 Other:           33.8%

 Total CPU:      142.0 seconds
 =====================================



 gnormi=  0.89573003  gnorms=  0.04738141  gnormp=  0.05688856  gnorm=  1.00000000
 ecorri= -0.21568065  ecorrs= -0.01140877  ecorrp= -0.01369814  ecorr= -0.24078756

 gnormi=  0.89120303  gnorms=  0.05158369  gnormp=  0.05721328  gnorm=  1.00000000
 ecorri= -0.22090794  ecorrs= -0.01278657  ecorrp= -0.01418160  ecorr= -0.24787610

 gnormi=  0.88865582  gnorms=  0.05429856  gnormp=  0.05704562  gnorm=  1.00000000
 ecorri= -0.21418937  ecorrs= -0.01308668  ecorrp= -0.01375019  ecorr= -0.24102624

 Reference coefficients greater than 0.0500000
 =============================================
 22//2020           0.0047853  -0.0000000   0.8814044
 2220//20           0.6554390  -0.6525220  -0.0092470
 222020//           0.6554389   0.6525219  -0.0092470
 22//20\/          -0.0231146  -0.0252131  -0.1136032
 22//\/20          -0.0231146   0.0252131  -0.1136031
 22//0220           0.0052427  -0.0044301  -0.0983277
 22//2002           0.0052427   0.0044301  -0.0983276
 2/2/2020          -0.0404843  -0.0000000  -0.0892586
 2/2/20\/          -0.0162853  -0.0142311  -0.0800978
 2/2/\/20          -0.0162853   0.0142311  -0.0800978
 2220/\//          -0.0431439  -0.0793210  -0.0101541
 2//02022          -0.0081412  -0.0083290   0.0663012
 2//02220          -0.0081412   0.0083290   0.0663012
 2//22020          -0.0002402  -0.0000000  -0.0625526
 22///\/\           0.0021791  -0.0018983  -0.0614279
 22///\\/           0.0046619   0.0003574   0.0607590
 22//\//\           0.0046618  -0.0057266   0.0607589
 2220///\          -0.0352267   0.0584508  -0.0082908
 2220//02          -0.0570603   0.0341029   0.0049788
 222002//          -0.0570603  -0.0341027   0.0049788
 2220//\/           0.0249091  -0.0547255   0.0058625
 2/2//\20          -0.0192775   0.0223880   0.0518769
 2/2/20/\          -0.0192775  -0.0223880   0.0518769

 Coefficients of fixed reference functions:
 ==========================================

 State      Coefficients
 1           0.945116   -0.000000    0.008308
 2          -0.000000    0.943150   -0.000000
 3          -0.010101   -0.000000    0.940539

 Coefficients of rotated reference functions:
 ============================================

 State      Coefficients
 1           0.945152   -0.000000   -0.000919
 2          -0.000000    0.943150   -0.000000
 3          -0.000919   -0.000000    0.940593


 RESULTS FOR STATE 1.1
 =====================

 Coefficient of reference function:   C(0) = 0.94511556 (fixed)   0.94643015 (relaxed)   0.94515163 (rotated)

 Energy contributions of configuration classes

 CLASS          SQ.NORM        ECORR1        ECORR2
 +++++++++++++++++++++++++++++++++++++++++++++++++++
 Internals    0.00270726   -0.00000123   -0.14727270
 Singles      0.05304018   -0.07570233   -0.07903454
 Pairs        0.06368277   -0.00087560   -0.01448032
 Total        1.11943021   -0.07657916   -0.24078756
 +++++++++++++++++++++++++++++++++++++++++++++++++++


 Reference energy                    -686.45227481
 Nuclear energy                        58.97298271
 Kinetic energy                       686.91597613
 One electron energy                -1067.94493619
 Two electron energy                  322.27887873
 Virial quotient                       -0.99967550
 Correlation energy                    -0.24079994
 !MRCI STATE 1.1 Energy              -686.693074750175

 Properties without orbital relaxation:

 !MRCI STATE 1.1 Dipole moment          0.00000000     0.00000000     0.21783321
 Dipole moment /Debye                   0.00000000     0.00000000     0.55367680

 Cluster corrected energies          -686.72183354 (Davidson, fixed reference)
 Cluster corrected energies          -686.72110574 (Davidson, relaxed reference)
 Cluster corrected energies          -686.72183354 (Davidson, rotated reference)

 Cluster corrected energies          -686.71594467 (Pople, fixed reference)
 Cluster corrected energies          -686.71533367 (Pople, relaxed reference)
 Cluster corrected energies          -686.71594467 (Pople, rotated reference)



 RESULTS FOR STATE 2.1
 =====================

 Coefficient of reference function:   C(0) = 0.94314990 (fixed)   0.94403550 (relaxed)   0.94314990 (rotated)

 Energy contributions of configuration classes

 CLASS          SQ.NORM        ECORR1        ECORR2
 +++++++++++++++++++++++++++++++++++++++++++++++++++
 Internals    0.00187884    0.00000000   -0.14939491
 Singles      0.05798971   -0.08039402   -0.08429960
 Pairs        0.06431843    0.00000001   -0.01418160
 Total        1.12418698   -0.08039401   -0.24787610
 +++++++++++++++++++++++++++++++++++++++++++++++++++


 Reference energy                    -686.43003113
 Nuclear energy                        58.97298271
 Kinetic energy                       686.93365981
 One electron energy                -1067.97241654
 Two electron energy                  322.32152660
 Virial quotient                       -0.99962769
 Correlation energy                    -0.24787610
 !MRCI STATE 2.1 Energy              -686.677907232713

 Properties without orbital relaxation:

 !MRCI STATE 2.1 Dipole moment          0.00000000     0.00000000     0.11310899
 Dipole moment /Debye                   0.00000000     0.00000000     0.28749436

 Cluster corrected energies          -686.70869022 (Davidson, fixed reference)
 Cluster corrected energies          -686.70816764 (Davidson, relaxed reference)
 Cluster corrected energies          -686.70869022 (Davidson, rotated reference)

 Cluster corrected energies          -686.70244256 (Pople, fixed reference)
 Cluster corrected energies          -686.70200178 (Pople, relaxed reference)
 Cluster corrected energies          -686.70244256 (Pople, rotated reference)



 RESULTS FOR STATE 3.1
 =====================

 Coefficient of reference function:   C(0) = 0.94053936 (fixed)   0.94268543 (relaxed)   0.94059316 (rotated)

 Energy contributions of configuration classes

 CLASS          SQ.NORM        ECORR1        ECORR2
 +++++++++++++++++++++++++++++++++++++++++++++++++++
 Internals    0.00445379   -0.00000123   -0.00097679
 Singles      0.06137403   -0.07700239   -0.08121189
 Pairs        0.06447906   -0.16399325   -0.15883755
 Total        1.13030688   -0.24099687   -0.24102624
 +++++++++++++++++++++++++++++++++++++++++++++++++++


 Reference energy                    -686.32238827
 Nuclear energy                        58.97298271
 Kinetic energy                       686.59576102
 One electron energy                -1066.97059127
 Two electron energy                  321.43420643
 Virial quotient                       -0.99995287
 Correlation energy                    -0.24101386
 !MRCI STATE 3.1 Energy              -686.563402127186

 Properties without orbital relaxation:

 !MRCI STATE 3.1 Dipole moment          0.00000000     0.00000000    -0.07724326
 Dipole moment /Debye                   0.00000000     0.00000000    -0.19633278

 Cluster corrected energies          -686.59480789 (Davidson, fixed reference)
[...]
    8     3     3     1.12288762    -0.26782981  -684.73006544    -0.00000383    -0.00000152  0.16D-05  0.17D-06   112.51
    9     1     1     1.10676481    -0.25102134  -684.94520472    -0.00000006    -0.00000001  0.34D-08  0.22D-08   128.59
    9     2     2     1.15766868    -0.25612272  -684.74914935    -0.00002019    -0.00000901  0.93D-05  0.88D-06   128.59
    9     3     3     1.12305583    -0.26783207  -684.73006770    -0.00000226    -0.00000109  0.11D-05  0.12D-06   128.59
   10     1     1     1.10676635    -0.25102134  -684.94520472    -0.00000000    -0.00000001  0.30D-08  0.22D-08   141.00
   10     2     2     1.16355089    -0.25614378  -684.74917042    -0.00002106    -0.00000449  0.29D-05  0.56D-06   141.00
   10     3     3     1.12374052    -0.26783560  -684.73007123    -0.00000353    -0.00000070  0.30D-06  0.96D-07   141.00
   11     1     1     1.10676722    -0.25102134  -684.94520472    -0.00000000    -0.00000001  0.26D-08  0.22D-08   153.30
   11     2     2     1.16494062    -0.25614946  -684.74917610    -0.00000568    -0.00000174  0.15D-05  0.20D-06   153.30
   11     3     3     1.12393198    -0.26783641  -684.73007204    -0.00000081    -0.00000013  0.91D-07  0.20D-07   153.30
   12     1     1     1.10676736    -0.25102134  -684.94520472    -0.00000000    -0.00000001  0.26D-08  0.22D-08   165.51
   12     2     2     1.16534190    -0.25615176  -684.74917839    -0.00000230    -0.00000093  0.95D-06  0.95D-07   165.51
   12     3     3     1.12393892    -0.26783658  -684.73007221    -0.00000017    -0.00000006  0.61D-07  0.66D-08   165.51
   13     1     1     1.10676816    -0.25102135  -684.94520472    -0.00000000    -0.00000001  0.28D-08  0.21D-08   177.79
   13     2     2     1.16631126    -0.25615441  -684.74918104    -0.00000265    -0.00000036  0.20D-06  0.39D-07   177.79
   13     3     3     1.12394095    -0.26783678  -684.73007241    -0.00000020    -0.00000004  0.32D-07  0.46D-08   177.79
   14     1     1     1.10676883    -0.25102135  -684.94520472    -0.00000000    -0.00000001  0.27D-08  0.20D-08   190.19
   14     2     2     1.16652566    -0.25615475  -684.74918139    -0.00000035    -0.00000005  0.41D-07  0.62D-08   190.19
   14     3     3     1.12395577    -0.26783682  -684.73007246    -0.00000004    -0.00000001  0.77D-08  0.11D-08   190.19
   15     1     1     1.10676879    -0.25102135  -684.94520472    -0.00000000    -0.00000001  0.24D-08  0.20D-08   198.84
   15     2     2     1.16680377    -0.25615484  -684.74918147    -0.00000009    -0.00000002  0.12D-07  0.45D-08   198.84
   15     3     3     1.12397971    -0.26783684  -684.73007247    -0.00000002    -0.00000001  0.34D-08  0.13D-08   198.84
   16     1     1     1.10676879    -0.25102135  -684.94520472    -0.00000000    -0.00000001  0.25D-08  0.20D-08   207.38
   16     2     2     1.16697895    -0.25615488  -684.74918152    -0.00000004    -0.00000001  0.71D-08  0.21D-08   207.38
   16     3     3     1.12400083    -0.26783685  -684.73007249    -0.00000001    -0.00000000  0.33D-08  0.78D-09   207.38


 =====================================
 Analysis of CPU times by interactions
 =====================================

       I      S      P

 I   0.1%
 S   0.1%   1.9%
 P   0.5%   9.8%  53.2%

 Initialization:   0.2%
 Other:           34.1%

 Total CPU:      207.4 seconds
 =====================================



 gnormi=  0.90353108  gnorms=  0.04000670  gnormp=  0.05646222  gnorm=  1.00000000
 ecorri= -0.22680559  ecorrs= -0.01004224  ecorrp= -0.01417352  ecorr= -0.25102135

 gnormi=  0.85691349  gnorms=  0.08440120  gnormp=  0.05868531  gnorm=  1.00000000
 ecorri= -0.21950257  ecorrs= -0.02161988  ecorrp= -0.01503243  ecorr= -0.25615488

 gnormi=  0.88967906  gnorms=  0.04886030  gnormp=  0.06146064  gnorm=  1.00000000
 ecorri= -0.23828884  ecorrs= -0.01308681  ecorrp= -0.01646121  ecorr= -0.26783685

 Reference coefficients greater than 0.0500000
 =============================================
 22//2020           0.9090659   0.2204553  -0.0143986
 2/2/2020          -0.2372745   0.8638164  -0.0601057
 2220//20           0.0006466   0.0489465   0.6557858
 222020//           0.0006467   0.0489469   0.6557852
 22//20\/          -0.0351375  -0.1091913   0.0090487
 22//\/20          -0.0351375  -0.1091913   0.0090488
 2/0/2022           0.0413008  -0.0766464  -0.0008976
 2/0/2220           0.0413008  -0.0766464  -0.0008976
 2//02220           0.0047691  -0.0029031  -0.0747249
 2//02022           0.0047691  -0.0029031  -0.0747239
 220022//          -0.0000699  -0.0043708  -0.0623643
 2200//22          -0.0000699  -0.0043707  -0.0623643
 2//22020           0.0109646  -0.0601797   0.0037247
 22//20/\           0.0320759   0.0508387   0.0046635
 22///\20           0.0320759   0.0508387   0.0046636

 Coefficients of singly external configurations greater than 0.0500000
 =====================================================================

 22/02020  11.1    -0.0094291  -0.1343627   0.0242087
 22/02020  12.1     0.0168253   0.0894012  -0.0304433
 22/02020  16.1    -0.0094030  -0.0725183   0.0166906

 Coefficients of fixed reference functions:
 ==========================================

 State      Coefficients
 1           0.949798    0.018367   -0.003599
 2          -0.023884    0.924102   -0.003966
 3           0.004884    0.013608    0.942620

 Coefficients of rotated reference functions:
 ============================================

 State      Coefficients
 1           0.949977   -0.003042    0.000798
 2          -0.003042    0.924402    0.004672
 3           0.000798    0.004672    0.942719


 RESULTS FOR STATE 1.1
 =====================

 Coefficient of reference function:   C(0) = 0.94979826 (fixed)   0.95054252 (relaxed)   0.94997745 (rotated)

 Energy contributions of configuration classes

 CLASS          SQ.NORM        ECORR1        ECORR2
 +++++++++++++++++++++++++++++++++++++++++++++++++++
 Internals    0.00119001   -0.00001541   -0.16798521
 Singles      0.04433086   -0.06684763   -0.07036936
 Pairs        0.06256499    0.00166960   -0.01266678
 Total        1.10808585   -0.06519344   -0.25102135
 +++++++++++++++++++++++++++++++++++++++++++++++++++


 Reference energy                    -684.69407626
 Nuclear energy                       107.75972295
 Kinetic energy                       692.19206030
 One electron energy                -1156.00900407
 Two electron energy                  363.30407640
 Virial quotient                       -0.98953057
 Correlation energy                    -0.25112846
 !MRCI STATE 1.1 Energy              -684.945204724601

 Properties without orbital relaxation:

 !MRCI STATE 1.1 Dipole moment          0.00000000     0.00000000    -1.36367344
 Dipole moment /Debye                   0.00000000     0.00000000    -3.46611217

 Cluster corrected energies          -684.97234816 (Davidson, fixed reference)
 Cluster corrected energies          -684.97201741 (Davidson, relaxed reference)
 Cluster corrected energies          -684.97234816 (Davidson, rotated reference)

 Cluster corrected energies          -684.96667291 (Pople, fixed reference)
 Cluster corrected energies          -684.96639788 (Pople, relaxed reference)
 Cluster corrected energies          -684.96667291 (Pople, rotated reference)



 RESULTS FOR STATE 2.1
 =====================

 Coefficient of reference function:   C(0) = 0.92410151 (fixed)   0.92569622 (relaxed)   0.92440180 (rotated)

 Energy contributions of configuration classes

 CLASS          SQ.NORM        ECORR1        ECORR2
 +++++++++++++++++++++++++++++++++++++++++++++++++++
 Internals    0.00280250   -0.00001630   -0.16261087
 Singles      0.09877045   -0.06754391   -0.07933741
 Pairs        0.06867646    0.00096643   -0.01420660
 Total        1.17024941   -0.06659377   -0.25615488
 +++++++++++++++++++++++++++++++++++++++++++++++++++


 Reference energy                    -684.49312641
 Nuclear energy                       107.75972295
 Kinetic energy                       692.24569101
 One electron energy                -1155.18776985
 Two electron energy                  362.67886538
 Virial quotient                       -0.98917074
 Correlation energy                    -0.25605511
 !MRCI STATE 2.1 Energy              -684.749181515650

 Properties without orbital relaxation:

 !MRCI STATE 2.1 Dipole moment          0.00000000     0.00000000    -0.58847878
 Dipole moment /Debye                   0.00000000     0.00000000    -1.49576385

 Cluster corrected energies          -684.79277475 (Davidson, fixed reference)
 Cluster corrected energies          -684.79193733 (Davidson, relaxed reference)
 Cluster corrected energies          -684.79277475 (Davidson, rotated reference)

 Cluster corrected energies          -684.78468947 (Pople, fixed reference)
 Cluster corrected energies          -684.78395442 (Pople, relaxed reference)
 Cluster corrected energies          -684.78468947 (Pople, rotated reference)



 RESULTS FOR STATE 3.1
 =====================

 Coefficient of reference function:   C(0) = 0.94262030 (fixed)   0.94322800 (relaxed)   0.94271926 (rotated)

 Energy contributions of configuration classes

 CLASS          SQ.NORM        ECORR1        ECORR2
 +++++++++++++++++++++++++++++++++++++++++++++++++++
 Internals    0.00107960   -0.00000221   -0.00027636
 Singles      0.05497831   -0.07585785   -0.08050316
 Pairs        0.06915639   -0.19195720   -0.18705733
 Total        1.12521430   -0.26781725   -0.26783685
 +++++++++++++++++++++++++++++++++++++++++++++++++++


 Reference energy                    -684.46224298
 Nuclear energy                       107.75972295
 Kinetic energy                       692.82049020
 One electron energy                -1157.46998498
 Two electron energy                  364.98018954
 Virial quotient                       -0.98832249
 Correlation energy                    -0.26782951
 !MRCI STATE 3.1 Energy              -684.730072485633

 Properties without orbital relaxation:

 !MRCI STATE 3.1 Dipole moment          0.00000000     0.00000000     1.10833677
 Dipole moment /Debye                   0.00000000     0.00000000     2.81711108

 Cluster corrected energies          -684.76360857 (Davidson, fixed reference)
 Cluster corrected energies          -684.76328357 (Davidson, relaxed reference)
 Cluster corrected energies          -684.76360857 (Davidson, rotated reference)

 Cluster corrected energies          -684.75681525 (Pople, fixed reference)
 Cluster corrected energies          -684.75654075 (Pople, relaxed reference)
 Cluster corrected energies          -684.75681525 (Pople, rotated reference)


 !MRCI trans          <2.1|DMZ|1.1>    -0.549115436616 au =    -1.395712224395 Debye

 !MRCI trans          <3.1|DMZ|1.1>    -0.050964698748 au =    -0.129539343299 Debye

 !MRCI trans          <3.1|DMZ|2.1>     0.104039349120 au =     0.264441648698 Debye


 **********************************************************************************************************************************
 DATASETS  * FILE   NREC   LENGTH (MB)   RECORD NAMES
              1      21      604.43       500      700      610      701      900      950      970     1000      129      960   
                                          VAR     GEOM    BASINP    GEOM    SYMINP    ZMAT    AOBASIS   BASIS     P2S    ABASIS    
                                         1100     1400     1410     1200     1210     1080     1600     1650     1300     1700   
                                           S        T        V       H0       H01     AOSYM     SMH    MOLCAS    ERIS     OPER   
                                         1380   
                                         JKOP   

              2       8       18.38       500      610      700     1000      520     2100     2140      701   
                                          VAR    BASINP    GEOM     BASIS   MCVARS     RHF     MCSCF    GEOM   

 PROGRAMS   *        TOTAL        CI     MULTI       INT        CI     MULTI       INT        CI     MULTI       INT        CI
 CPU TIMES  *     24577.30    208.06      5.02     36.96    212.01      5.31     37.85    214.84      5.36     38.12    203.31
 REAL TIME  *     25472.72 SEC
 DISK USED  *         1.83 GB
 **********************************************************************************************************************************
 SETTING E1(124)        =      -684.94520472  AU                              
 SETTING E2(124)        =      -684.74918152  AU                              
 SETTING E3(124)        =      -684.73007249  AU                              


      R          E1             E2             E3
    2.016   -686.6937488   -686.6786385   -686.5636720
    2.010   -686.6930748   -686.6779072   -686.5634021
    2.000   -686.6918723   -686.6766096   -686.5629251
    1.990   -686.6905673   -686.6752099   -686.5624115
    1.980   -686.6891556   -686.6737039   -686.5618585
    1.970   -686.6876328   -686.6720873   -686.5612627
    1.960   -686.6859942   -686.6703556   -686.5606208
    1.957   -686.6854793   -686.6698129   -686.5604186
    1.950   -686.6842350   -686.6685039   -686.5599289
    1.940   -686.6823504   -686.6665273   -686.5591832
    1.930   -686.6803352   -686.6644209   -686.5583794
    1.920   -686.6781839   -686.6621792   -686.5575128
    1.910   -686.6758910   -686.6597967   -686.5565788
    1.900   -686.6734509   -686.6572678   -686.5555720
    1.890   -686.6708573   -686.6545864   -686.5544872
    1.880   -686.6681042   -686.6517464   -686.5533184
    1.870   -686.6651851   -686.6487414   -686.5520595
    1.860   -686.6620931   -686.6455647   -686.5507042
    1.850   -686.6588214   -686.6422093   -686.5492455
    1.840   -686.6553627   -686.6386681   -686.5476764
    1.830   -686.6517094   -686.6349335   -686.5459892
    1.820   -686.6478537   -686.6309979   -686.5441760
    1.810   -686.6437876   -686.6268531   -686.5422287
    1.800   -686.6395025   -686.6224908   -686.5401385
    1.790   -686.6349898   -686.6179024   -686.5378966
    1.780   -686.6302404   -686.6130788   -686.5354938
    1.770   -686.6242430   -686.6078189   -686.5384669
    1.760   -686.6189094   -686.6024408   -686.5357002
    1.750   -686.6133164   -686.5968018   -686.5327110
    1.740   -686.6074552   -686.5908926   -686.5294939
    1.730   -686.6013153   -686.5847026   -686.5260421
    1.720   -686.5948848   -686.5782203   -686.5223465
    1.710   -686.5881513   -686.5714332   -686.5183962
    1.700   -686.5811015   -686.5643286   -686.5141788
    1.690   -686.5737218   -686.5568931   -686.5096808
    1.680   -686.5659980   -686.5491130   -686.5048879
    1.670   -686.5579159   -686.5409740   -686.4997851
    1.660   -686.5494604   -686.5324616   -686.4943571
    1.650   -686.5406163   -686.5235606   -686.4885880
    1.640   -686.5313679   -686.5142555   -686.4824614
    1.630   -686.5216988   -686.5045302   -686.4759605
    1.620   -686.5115924   -686.4943680   -686.4690681
    1.610   -686.5010314   -686.4837517   -686.4617664
    1.600   -686.4899981   -686.4726634   -686.4540371
    1.590   -686.4784740   -686.4610848   -686.4458612
    1.580   -686.4664405   -686.4489968   -686.4372192
    1.570   -686.4538783   -686.4363797   -686.4280908
    1.560   -686.4407680   -686.4232129   -686.4184547
    1.550   -686.4270900   -686.4094755   -686.4082880
    1.540   -686.4128260   -686.3975657   -686.3951454
    1.530   -686.3979614   -686.3862577   -686.3802002
    1.520   -686.3824952   -686.3743185   -686.3646164
    1.510   -686.3664921   -686.3616359   -686.3483699
    1.500   -686.3504929   -686.3476197   -686.3314357
    1.490   -686.3357048   -686.3310121   -686.3137881
    1.480   -686.3210086   -686.3128802   -686.2954004
    1.470   -686.3057379   -686.2938364   -686.2762452
    1.460   -686.2897654   -686.2739526   -686.2562943
    1.450   -686.2730390   -686.2532240   -686.2355184
    1.440   -686.2555216   -686.2316292   -686.2138875
    1.430   -686.2371802   -686.2091410   -686.1913707
    1.420   -686.2179830   -686.1857296   -686.1679364
    1.410   -686.1978982   -686.1613634   -686.1435518
    1.400   -686.1768940   -686.1360095   -686.1181836
    1.395   -686.1660369   -686.1229516   -686.1051199
    1.390   -686.1549378   -686.1096340   -686.0917973
    1.385   -686.1435924   -686.0960522   -686.0782116
    1.380   -686.1319967   -686.0822020   -686.0643580
    1.375   -686.1201464   -686.0680787   -686.0502323
    1.370   -686.1080372   -686.0536779   -686.0358298
    1.365   -686.0956650   -686.0389949   -686.0211459
    1.360   -686.0830254   -686.0240251   -686.0061760
    1.355   -686.0701140   -686.0087638   -685.9909154
    1.350   -686.0569265   -685.9932063   -685.9753593
    1.345   -686.0434586   -685.9773479   -685.9595030
    1.340   -686.0297057   -685.9611837   -685.9433417
    1.335   -686.0156635   -685.9447088   -685.9268705
    1.330   -686.0013274   -685.9279185   -685.9100847
    1.325   -685.9866930   -685.9108078   -685.8929792
    1.320   -685.9717557   -685.8933718   -685.8755491
    1.315   -685.9565110   -685.8756054   -685.8577895
    1.310   -685.9409543   -685.8575039   -685.8396955
    1.305   -685.9250811   -685.8390620   -685.8212620
    1.300   -685.9088868   -685.8202748   -685.8024840
    1.295   -685.8923667   -685.8011374   -685.7833566
    1.290   -685.8755163   -685.7816445   -685.7638746
    1.285   -685.8583309   -685.7617912   -685.7440331
    1.280   -685.8408060   -685.7415724   -685.7238270
    1.275   -685.8229368   -685.7209831   -685.7032514
    1.270   -685.8047187   -685.7000182   -685.6823012
    1.265   -685.7861472   -685.6786726   -685.6609714
    1.260   -685.7672176   -685.6569413   -685.6392570
    1.255   -685.7479252   -685.6348194   -685.6171532
    1.250   -685.7282655   -685.6123016   -685.5946549
    1.245   -685.7082338   -685.5893832   -685.5717574
    1.240   -685.6878256   -685.5660590   -685.5484557
    1.235   -685.6670363   -685.5423242   -685.5247451
    1.230   -685.6458612   -685.5181736   -685.5006207
    1.225   -685.6242958   -685.4936023   -685.4760780
    1.220   -685.6023357   -685.4686053   -685.4511123
    1.215   -685.5799762   -685.4431773   -685.4257189
    1.210   -685.5572130   -685.4173131   -685.3998935
    1.205   -685.5340415   -685.3910069   -685.3736314
    1.200   -685.5109697   -685.3639636   -685.3307558
    1.195   -685.4869667   -685.3367885   -685.3061072
    1.190   -685.4625411   -685.3091633   -685.2810178
    1.185   -685.4376883   -685.2810841   -685.2554826
    1.180   -685.4124038   -685.2525470   -685.2294964
    1.175   -685.3866829   -685.2235488   -685.2030539
    1.170   -685.3605211   -685.1940864   -685.1761496
    1.165   -685.3339135   -685.1641576   -685.1487772
    1.160   -685.3068556   -685.1337615   -685.1209291
    1.155   -685.2793425   -685.1029002   -685.0925952
    1.150   -685.2513695   -685.0715832   -685.0637576
    1.145   -685.2229315   -685.0398436   -685.0343750
    1.140   -685.1940237   -685.0078115   -685.0043095
    1.135   -685.1646410   -684.9759665   -684.9730734
    1.130   -685.1347780   -684.9446198   -684.9403474
    1.125   -685.1044296   -684.9131848   -684.9067102
    1.120   -685.0735901   -684.8813614   -684.8724537
    1.115   -685.0422538   -684.8490712   -684.8376482
    1.110   -685.0104150   -684.8162865   -684.8023132
    1.105   -684.9780674   -684.7829930   -684.7664544
    1.100   -684.9452047   -684.7491815   -684.7300725
                                                  

 CI/aug-cc-pV5Z energy=   -684.730072485633

              CI           MULTI              CI           MULTI              CI           MULTI              CI           MULTI
   -684.73007249   -684.44012186   -684.76645437   -684.47650067   -684.80231321   -684.51238144   -684.83764819   -684.54776507
 **********************************************************************************************************************************
 Molpro calculation terminated
