
 Working directory              : /tmp/molpro/molpro.OSDbYwHv2Z/
 Global scratch directory       : /tmp/molpro/molpro.OSDbYwHv2Z/
 Wavefunction directory         : /home/molpro/wfu/
 Main file repository           : /tmp/molpro/molpro.OSDbYwHv2Z/

 id        : gskim

 Nodes                nprocs
 localhost.localdomain    1
 GA implementation: MPI file
 GA implementation (serial work in mppx): MPI file

 Using customized tuning parameters: mindgm=1; mindgv=20; mindgc=4; mindgr=1; noblas=0; minvec=7
 default implementation of scratch files=df  


 Variables initialized (1009), CPU time= 0.00 sec
 ***,The CI for SiS   3sig-  excited states
 file,2,sis-3sigm2b.wfu
 memory,1000,M
 geometry={angstrom;
 Si
 S,Si,r(i)}
 basis=av5z
 r=[2.24,2.23,2.22,2.21,2.20,2.19,2.18,2.17,2.16,2.15,2.14,2.13,2.12,2.112,2.10,2.09,2.08,2.07,2.06,2.05,2.04,2.03,2.02,2.01,2.00,1.99,1.98,1.97,1.96,1.957,1.95,1.94,1.93,1.92,1.91,1.90,1.89,1.88,1.87,1.86,1.85,1.84,1.83,1.82,1.81,1.80,1.79,1.78,1.77,1.76,1.75,1.74,1.73,1.72,1.71,1.70,1.69,1.68,1.67,1.66,1.65,1.64,1.63,1.62,1.61,1.60,1.59,1.58,1.57,1.56,1.55,1.54,1.53,1.52,1.51,1.50,1.49,1.48,1.47,1.46,1.45,1.44,1.43,1.42,1.41,1.40,1.395,1.39,1.385,1.38,1.375,1.37,1.365,1.36,1.355,1.35,1.345,1.34,1.335,1.33,1.325,1.32,1.315,1.31,1.305,1.30,1.295,1.29,1.285,1.28,1.275,1.27,1.265,1.26,1.255,1.25,1.245,1.24,1.235,1.23,1.225,1.22,1.215,1.21,1.205,1.20,1.195,1.19,1.185,1.18,1.175,1.17,1.165,1.16,1.155,1.15,1.145,1.14,1.135,1.13,1.125,1.12,1.115,1.11,1.105,1.10]
 do i=1,#r
 int;
 
 
 Text,CASSCF, state averaged orbitals for 3sig- state
 
 {multi;occ,10,4,4;close,6,2,2;start,2130.2;orbital,2140.2;natorb,,ci;wf,30,4,2;state,3;maxiter,40;}
 {ci;occ,10,4,4;core,6,2,2;wf,30,4,2;state,2;maxiter,250;option,maxiti=250;option,nstati=3;orbital,ignore_error=1;}
 
 
 e1(i)=energy(1)
 e2(i)=energy(2)
 
 
 enddo
 
 table,r,e1,e2
 
 
 Commands initialized (810), CPU time= 0.01 sec, 661 directives.
 Default parameters read. Elapsed time= 0.05 sec

 Checking input...
 Passed
1


                                         ***  PROGRAM SYSTEM MOLPRO  ***
                                       Copyright, TTI GmbH Stuttgart, 2015
                                    Version 2021.2 linked Jul 16 2021 07:37:36


 **********************************************************************************************************************************
 LABEL *   The CI for SiS   3sig-  excited states                                        
  64 bit serial version                                                                  DATE: 07-Oct-24          TIME: 15:59:51  
 **********************************************************************************************************************************

 SHA1:             dade016a989826d9d859d6207854b99675d53db3
 **********************************************************************************************************************************

 Memory per process:      1000 MW
 Total memory per node:   1000 MW

 GA preallocation disabled
 GA check disabled

 Variable memory set to 1000.0 MW



 Permanent file  2  sis-3sigm2b.wfu  assigned.  Implementation=df    Size= 17.78 MB


 PROGRAM * RESTART 


 Reading variables from file 2

 _FNUC           =      0.00000000
 _BASIS          =    AV5Z
 _NELEC          =     30.00000000
 _PROGRAM        =    CI
 _DMX(2)         =      0.00000000
 _DMY(2)         =      0.00000000
 _DMZ(1:2)       =     -0.28236724    -0.33636114
 _DMX_SCF        =      0.00000000
 _DMY_SCF        =      0.00000000
 _DMZ_SCF        =     -0.39791267
 _HOMO           =      4.20000000
 _EHOMO          =     -0.27809423
 _LUMO           =      4.30000000
 _ELUMO          =     -0.01193773
 _ENERGD(1:2)    =   -686.71741380  -686.70891148
 _ENERGD0(1:2)   =   -686.71741380  -686.70891148
 _ENERGD1(1:2)   =   -686.71771613  -686.70914989
 _ENERGD2(1:2)   =   -686.71771613  -686.70914989
 _ENERGD3(1:2)   =   -686.71741380  -686.70891148
 _ENERGD4(1:2)   =   -686.71771613  -686.70914989
 _ENERGP(1:2)    =   -686.71163460  -686.70328874
 _ENERGP0(1:2)   =   -686.71163460  -686.70328874
 _ENERGP1(1:2)   =   -686.71188890  -686.70348874
 _ENERGP2(1:2)   =   -686.71188890  -686.70348874
 _ENERGP3(1:2)   =   -686.71163460  -686.70328874
 _ENERGP4(1:2)   =   -686.71188890  -686.70348874
 _ENERGR(1:2)    =   -686.45291833  -686.44728476
 _ENERGRR(1:2)   =   -686.45291833  -686.44728476
 _ENERGY(1:2)    =   -686.68918904  -686.68159748
 _ENERGY_METHOD  =    CI
 _ENERGY_BASIS   =    aug-cc-pV5Z
 _ENERGY_AVRG    =   -686.40414125
 _ENUC           =     52.91772109
 _IPROC_MPP      =      0.00000000
 _IPROC_MPPX     =      0.00000000
 _ORBITAL        =   2140.20000000
 _ROOT(1:2)      =      1.00000000     2.00000000
 _STATUS         =      1.00000000
 _TROV           =      0.00000000
 _DATE           =    05-Oct-24
 _LASTORB        =    MCSCF
 _OUTPUT         =    /home/molpro/SiS-3oct2024/dir-5/sis-3sigm2mc.out
 _PGROUP         =    C2v 
 _TIME           =    04:22:24
 _C0(1:2)        =      0.89328832     0.89559936
 _C0R(1:2)       =      0.89226843     0.89478397
 _DMX_CC(1:3)    =     -0.00000000    -0.00000000    -0.00000000
 _DMY_CC(1:3)    =     -0.00000000    -0.00000000    -0.00000000
 _DMZ_CC(1:3)    =      2.79732935     2.79732935     2.79732935
 _DMX_NUC(1:3)   =      0.00000000     0.00000000     0.00000000
 _DMY_NUC(1:3)   =      0.00000000     0.00000000     0.00000000
 _DMZ_NUC(1:3)   =      0.03716017     0.03716017     0.03716017
 _SYM_CATION     =      3.00000000
 R               =      2.24000000
 _TRDMX          =     -0.00000000
 _TRDMY          =     -0.00000000
 _TRDMZ          =      0.00000013

 Geometry written to block  1 of record 700


 **********************************************************************************************************************************
 DATASETS  * FILE   NREC   LENGTH (MB)   RECORD NAMES
              2       7       17.78       500      610      700     1000      520     2100     2140   
                                          VAR    BASINP    GEOM     BASIS   MCVARS     RHF     MCSCF   

 PROGRAMS   *        TOTAL   RESTART
 CPU TIMES  *         0.10      0.01
 REAL TIME  *         0.12 SEC
 DISK USED  *        29.25 MB
 **********************************************************************************************************************************
 SETTING BASIS          =    AV5Z
 SETTING R(1)           =         2.24000000                                  
 SETTING R(2)           =         2.23000000                                  
 SETTING R(3)           =         2.22000000                                  
 SETTING R(4)           =         2.21000000                                  
 SETTING R(5)           =         2.20000000                                  
 SETTING R(6)           =         2.19000000                                  
 SETTING R(7)           =         2.18000000                                  
 SETTING R(8)           =         2.17000000                                  
 SETTING R(9)           =         2.16000000                                  
 SETTING R(10)          =         2.15000000                                  
 SETTING R(11)          =         2.14000000                                  
 SETTING R(12)          =         2.13000000                                  
 SETTING R(13)          =         2.12000000                                  
 SETTING R(14)          =         2.11200000                                  
 SETTING R(15)          =         2.10000000                                  
 SETTING R(16)          =         2.09000000                                  
 SETTING R(17)          =         2.08000000                                  
 SETTING R(18)          =         2.07000000                                  
 SETTING R(19)          =         2.06000000                                  
 SETTING R(20)          =         2.05000000                                  
 SETTING R(21)          =         2.04000000                                  
 SETTING R(22)          =         2.03000000                                  
 SETTING R(23)          =         2.02000000                                  
 SETTING R(24)          =         2.01000000                                  
 SETTING R(25)          =         2.00000000                                  
 SETTING R(26)          =         1.99000000                                  
 SETTING R(27)          =         1.98000000                                  
 SETTING R(28)          =         1.97000000                                  
 SETTING R(29)          =         1.96000000                                  
 SETTING R(30)          =         1.95700000                                  
 SETTING R(31)          =         1.95000000                                  
 SETTING R(32)          =         1.94000000                                  
 SETTING R(33)          =         1.93000000                                  
 SETTING R(34)          =         1.92000000                                  
 SETTING R(35)          =         1.91000000                                  
 SETTING R(36)          =         1.90000000                                  
 SETTING R(37)          =         1.89000000                                  
 SETTING R(38)          =         1.88000000                                  
 SETTING R(39)          =         1.87000000                                  
 SETTING R(40)          =         1.86000000                                  
 SETTING R(41)          =         1.85000000                                  
 SETTING R(42)          =         1.84000000                                  
 SETTING R(43)          =         1.83000000                                  
 SETTING R(44)          =         1.82000000                                  
 SETTING R(45)          =         1.81000000                                  
 SETTING R(46)          =         1.80000000                                  
 SETTING R(47)          =         1.79000000                                  
 SETTING R(48)          =         1.78000000                                  
 SETTING R(49)          =         1.77000000                                  
 SETTING R(50)          =         1.76000000                                  
 SETTING R(51)          =         1.75000000                                  
 SETTING R(52)          =         1.74000000                                  
 SETTING R(53)          =         1.73000000                                  
 SETTING R(54)          =         1.72000000                                  
 SETTING R(55)          =         1.71000000                                  
 SETTING R(56)          =         1.70000000                                  
 SETTING R(57)          =         1.69000000                                  
 SETTING R(58)          =         1.68000000                                  
 SETTING R(59)          =         1.67000000                                  
 SETTING R(60)          =         1.66000000                                  
 SETTING R(61)          =         1.65000000                                  
 SETTING R(62)          =         1.64000000                                  
 SETTING R(63)          =         1.63000000                                  
 SETTING R(64)          =         1.62000000                                  
 SETTING R(65)          =         1.61000000                                  
 SETTING R(66)          =         1.60000000                                  
 SETTING R(67)          =         1.59000000                                  
 SETTING R(68)          =         1.58000000                                  
 SETTING R(69)          =         1.57000000                                  
 SETTING R(70)          =         1.56000000                                  
 SETTING R(71)          =         1.55000000                                  
 SETTING R(72)          =         1.54000000                                  
 SETTING R(73)          =         1.53000000                                  
 SETTING R(74)          =         1.52000000                                  
 SETTING R(75)          =         1.51000000                                  
 SETTING R(76)          =         1.50000000                                  
 SETTING R(77)          =         1.49000000                                  
 SETTING R(78)          =         1.48000000                                  
 SETTING R(79)          =         1.47000000                                  
 SETTING R(80)          =         1.46000000                                  
 SETTING R(81)          =         1.45000000                                  
 SETTING R(82)          =         1.44000000                                  
 SETTING R(83)          =         1.43000000                                  
 SETTING R(84)          =         1.42000000                                  
 SETTING R(85)          =         1.41000000                                  
 SETTING R(86)          =         1.40000000                                  
 SETTING R(87)          =         1.39500000                                  
 SETTING R(88)          =         1.39000000                                  
 SETTING R(89)          =         1.38500000                                  
 SETTING R(90)          =         1.38000000                                  
 SETTING R(91)          =         1.37500000                                  
 SETTING R(92)          =         1.37000000                                  
 SETTING R(93)          =         1.36500000                                  
 SETTING R(94)          =         1.36000000                                  
 SETTING R(95)          =         1.35500000                                  
 SETTING R(96)          =         1.35000000                                  
 SETTING R(97)          =         1.34500000                                  
 SETTING R(98)          =         1.34000000                                  
 SETTING R(99)          =         1.33500000                                  
 SETTING R(100)         =         1.33000000                                  
 SETTING R(101)         =         1.32500000                                  
 SETTING R(102)         =         1.32000000                                  
 SETTING R(103)         =         1.31500000                                  
 SETTING R(104)         =         1.31000000                                  
 SETTING R(105)         =         1.30500000                                  
 SETTING R(106)         =         1.30000000                                  
 SETTING R(107)         =         1.29500000                                  
 SETTING R(108)         =         1.29000000                                  
 SETTING R(109)         =         1.28500000                                  
 SETTING R(110)         =         1.28000000                                  
 SETTING R(111)         =         1.27500000                                  
 SETTING R(112)         =         1.27000000                                  
 SETTING R(113)         =         1.26500000                                  
 SETTING R(114)         =         1.26000000                                  
 SETTING R(115)         =         1.25500000                                  
 SETTING R(116)         =         1.25000000                                  
 SETTING R(117)         =         1.24500000                                  
 SETTING R(118)         =         1.24000000                                  
 SETTING R(119)         =         1.23500000                                  
 SETTING R(120)         =         1.23000000                                  
 SETTING R(121)         =         1.22500000                                  
 SETTING R(122)         =         1.22000000                                  
 SETTING R(123)         =         1.21500000                                  
 SETTING R(124)         =         1.21000000                                  
 SETTING R(125)         =         1.20500000                                  
 SETTING R(126)         =         1.20000000                                  
 SETTING R(127)         =         1.19500000                                  
 SETTING R(128)         =         1.19000000                                  
 SETTING R(129)         =         1.18500000                                  
 SETTING R(130)         =         1.18000000                                  
 SETTING R(131)         =         1.17500000                                  
 SETTING R(132)         =         1.17000000                                  
 SETTING R(133)         =         1.16500000                                  
 SETTING R(134)         =         1.16000000                                  
 SETTING R(135)         =         1.15500000                                  
 SETTING R(136)         =         1.15000000                                  
 SETTING R(137)         =         1.14500000                                  
 SETTING R(138)         =         1.14000000                                  
 SETTING R(139)         =         1.13500000                                  
 SETTING R(140)         =         1.13000000                                  
 SETTING R(141)         =         1.12500000                                  
 SETTING R(142)         =         1.12000000                                  
 SETTING R(143)         =         1.11500000                                  
 SETTING R(144)         =         1.11000000                                  
 SETTING R(145)         =         1.10500000                                  
 SETTING R(146)         =         1.10000000                                  

 DO I                   =         1.00000000   


 Using spherical harmonics

 Library entry SI     S aug-cc-pV5Z          selected for orbital group  1
 Library entry SI     P aug-cc-pV5Z          selected for orbital group  1
 Library entry SI     D aug-cc-pV5Z          selected for orbital group  1
 Library entry SI     F aug-cc-pV5Z          selected for orbital group  1
 Library entry SI     G aug-cc-pV5Z          selected for orbital group  1
 Library entry SI     H aug-cc-pV5Z          selected for orbital group  1
 Library entry S      S aug-cc-pV5Z          selected for orbital group  2
 Library entry S      P aug-cc-pV5Z          selected for orbital group  2
 Library entry S      D aug-cc-pV5Z          selected for orbital group  2
 Library entry S      F aug-cc-pV5Z          selected for orbital group  2
 Library entry S      G aug-cc-pV5Z          selected for orbital group  2
 Library entry S      H aug-cc-pV5Z          selected for orbital group  2


 PROGRAM * SEWARD (Integral evaluation for generally contracted gaussian basis sets)     Author: Roland Lindh, 1990

 Geometry written to block  1 of record 701

 Orientation using atomic masses  
 Molecule type: Linear
 Symmetry elements: X,Y
 Rotational constants:       6.7278858      6.7278858      0.0000000 GHz  (calculated with average atomic masses)

 Point group  C2v 



 ATOMIC COORDINATES

 NR  ATOM    CHARGE       X              Y              Z

   1  SI     14.00    0.000000000    0.000000000   -2.256354138
   2  S      16.00    0.000000000    0.000000000    1.976632381

 Bond lengths in Bohr (Angstrom)

 1-2  4.232986519
     ( 2.240000000)

 NUCLEAR CHARGE:                   30
 NUMBER OF PRIMITIVE AOS:         434
 NUMBER OF SYMMETRY AOS:          324
 NUMBER OF CONTRACTIONS:          262   (   96A1  +   64B1  +   64B2  +   38A2  )
 NUMBER OF INNER CORE ORBITALS:     2   (    2A1  +    0B1  +    0B2  +    0A2  )
 NUMBER OF OUTER CORE ORBITALS:     8   (    4A1  +    2B1  +    2B2  +    0A2  )
 NUMBER OF VALENCE ORBITALS:        8   (    4A1  +    2B1  +    2B2  +    0A2  )


 NUCLEAR REPULSION ENERGY   52.91772109

 EXTRA SYMMETRY OF AOS IN SYMMETRY 1:   1 1 1 1 1 1 1 1 1 1   1 1 1 1 1 1 2 1 2 1   2 1 2 1 2 1 2 1 2 1   2 1 2 1 3 2 1 3 2 1
                                        3 2 2 3 1 2 3 1 1 1   1 1 1 1 1 1 1 1 1 1   1 1 1 1 2 1 2 1 2 1   2 1 2 1 2 1 2 1 2 1
                                        2 1 3 2 1 3 2 1 3 2   2 3 1 2 3 1
 EXTRA SYMMETRY OF AOS IN SYMMETRY 2:   1 1 1 1 1 1 1 1 1 1   1 1 1 2 1 2 1 2 1 2   1 2 1 2 1 2 1 2 3 1   2 3 1 1 1 1 1 1 1 1
                                        1 1 1 1 1 2 1 2 1 2   1 2 1 2 1 2 1 2 1 2   3 1 2 3
 EXTRA SYMMETRY OF AOS IN SYMMETRY 3:   1 1 1 1 1 1 1 1 1 1   1 1 1 2 1 2 1 2 1 2   1 2 1 2 1 2 1 2 3 1   2 3 1 1 1 1 1 1 1 1
                                        1 1 1 1 1 2 1 2 1 2   1 2 1 2 1 2 1 2 1 2   3 1 2 3
 EXTRA SYMMETRY OF AOS IN SYMMETRY 4:   1 1 1 1 1 1 1 1 1 1   2 1 2 1 2 2 1 2 1 1   1 1 1 1 1 1 1 1 1 2   1 2 1 2 2 1 2 1

 Eigenvalues of metric

         1 0.776E-05 0.858E-05 0.197E-04 0.265E-04 0.514E-04 0.351E-03 0.496E-03 0.143E-02
         2 0.904E-05 0.107E-04 0.403E-03 0.243E-02 0.806E-02 0.130E-01 0.262E-01 0.321E-01
         3 0.904E-05 0.107E-04 0.403E-03 0.243E-02 0.806E-02 0.130E-01 0.262E-01 0.321E-01
         4 0.592E-02 0.187E-01 0.407E-01 0.579E-01 0.651E-01 0.734E-01 0.104E+00 0.144E+00


 Contracted 2-electron integrals neglected if value below      1.0D-12
 AO integral compression algorithm  1   Integral accuracy      1.0D-12

     623.378 MB (compressed) written to integral file ( 43.0%)


 NUMBER OF SORTED TWO-ELECTRON INTEGRALS:  150955559.     BUFFER LENGTH:  32768
 NUMBER OF SEGMENTS:  10  SEGMENT LENGTH:   15998976      RECORD LENGTH: 524288

 Memory used in sort:      16.56 MW

 SORT1 READ   181316810. AND WROTE   100527914. INTEGRALS IN    293 RECORDS. CPU TIME:     2.08 SEC, REAL TIME:     2.59 SEC
 SORT2 READ   100527914. AND WROTE   150955559. INTEGRALS IN   2378 RECORDS. CPU TIME:     1.59 SEC, REAL TIME:     1.90 SEC

 FILE SIZES:   FILE 1:   655.1 MBYTE,  FILE 4:  1229.0 MBYTE,   TOTAL:   1884.0 MBYTE

 OPERATOR DM      FOR CENTER  0  COORDINATES:    0.000000    0.000000    0.000000


 **********************************************************************************************************************************
 DATASETS  * FILE   NREC   LENGTH (MB)   RECORD NAMES
              1      20      511.22       500      700      610      701      900      950      970     1000      129      960   
                                          VAR     GEOM    BASINP    GEOM    SYMINP    ZMAT    AOBASIS   BASIS     P2S    ABASIS    
                                         1100     1400     1410     1200     1210     1080     1600     1650     1300     1700   
                                           S        T        V       H0       H01     AOSYM     SMH    MOLCAS    ERIS     OPER   

              2       8       18.31       500      610      700     1000      520     2100     2140      701   
                                          VAR    BASINP    GEOM     BASIS   MCVARS     RHF     MCSCF    GEOM   

 PROGRAMS   *        TOTAL       INT   RESTART
 CPU TIMES  *        39.64     39.54      0.01
 REAL TIME  *        41.00 SEC
 DISK USED  *         1.77 GB
 **********************************************************************************************************************************

 PROGRAM * MULTI (Direct Multiconfiguration SCF)       Authors: P.J. Knowles, H.-J. Werner (1984)
                                                                D.A. Kreplin, P.J. Knowles, H.-J. Werner (2019)

 Number of closed-shell orbitals:  10 (   6   2   2   0 )
 Number of active  orbitals:        8 (   4   2   2   0 )
 Number of external orbitals:     244 (  86  60  60  38 )

 State symmetry 1

 Number of active electrons:  10    Spin symmetry=Triplet   Space symmetry=4
 Number of states:             3
 Number of CSFs:             384   (504 determinants, 1960 intermediate states)

 Molecular orbitals read from record     2140.2  Type=MCSCF/NATURAL (state averaged)

 EXTRA SYMMETRY OF MOS IN SYMMETRY 1:   1 1 1 1 1 1 1 1 1 1   1 1 1 2 1 1 1 2 1 2   1 1 2 1 1 1 2 2 1 3   1 2 1 2 1 2 1 3 1 1
                                        2 2 1 1 2 1 2 1 3 3   1 2 1 1 2 2 1 1 2 3   3 1 2 1 2 1 1 2 1 2   1 3 3 2 1 1 2 1 1 2
                                        1 3 2 1 3 2 2 1 1 1   2 1 1 1 1 1
 EXTRA SYMMETRY OF MOS IN SYMMETRY 2:   1 1 1 1 1 1 1 1 2 1   1 1 1 2 1 1 2 2 1 1   1 1 2 2 1 1 1 2 1 3   2 1 1 2 1 2 1 3 2 1
                                        1 2 1 2 1 1 1 1 2 3   2 1 1 2 1 2 3 2 1 1   1 1 1 1
 EXTRA SYMMETRY OF MOS IN SYMMETRY 3:   1 1 1 1 1 1 1 1 2 1   1 1 1 2 1 1 2 2 1 1   1 1 2 2 1 1 1 2 1 3   2 1 1 2 1 2 1 3 2 1
                                        1 2 1 2 1 1 1 1 2 3   2 1 1 2 1 2 3 2 1 1   1 1 1 1
 EXTRA SYMMETRY OF MOS IN SYMMETRY 4:   1 1 1 1 1 1 2 1 1 1   2 1 1 1 1 2 2 1 1 1   1 2 2 1 1 1 1 2 2 1   1 1 2 1 2 1 1 1

 Wavefunction dump at record             2140.2

 Convergence thresholds  0.10E-04 (gradient)  0.10E-05 (energy)

 Weight factors for state symmetry  1:    0.33333   0.33333   0.33333
 
 Number of orbital rotations:  1372  ( 32 closed/active, 756 closed/virtual, 0 active/active, 584 active/virtual )
 Total number of variables:    2884
 
  Second-order MCSCF: L-BFGS accelerated
 
 ITER  MIC  NCI  NEG     ENERGY(VAR)    ENERGY(PROJ) ENERGY CHANGE       GRAD(0)  GRAD(ORB)   GRAD(CI)      STEP      TIME
   1   12   22    0   -686.40414125    -686.40414125   -0.00000000    0.00001980 0.00000000 0.00000006  0.67E-07      1.55

 CONVERGENCE REACHED!  Final gradient:    0.00000001 ( 0.62E-08)
                       Final energy:   -686.40414125
 
 Results for state 1.4
 =====================
 !MCSCF STATE 1.4 Energy                      -686.452918328596
 Nuclear energy                                 52.91772109
 Kinetic energy                                686.52704996
 One electron energy                         -1056.07383788
 Two electron energy                           316.70319846
 Virial ratio                                    1.99989202
 
 !MCSCF STATE 1.4 Dipole moment                  0.00000000     0.00000000    -0.28643657
 Dipole moment /Debye                            0.00000000     0.00000000    -0.72804914
 
 Results for state 2.4
 =====================
 !MCSCF STATE 2.4 Energy                      -686.447284757666
 Nuclear energy                                 52.91772109
 Kinetic energy                                686.53071545
 One electron energy                         -1056.08609998
 Two electron energy                           316.72109413
 Virial ratio                                    1.99987847
 
 !MCSCF STATE 2.4 Dipole moment                  0.00000000     0.00000000    -0.33083056
 Dipole moment /Debye                            0.00000000     0.00000000    -0.84088741
 
 Results for state 3.4
 =====================
 !MCSCF STATE 3.4 Energy                      -686.312220672403
 Nuclear energy                                 52.91772109
 Kinetic energy                                686.13976767
 One electron energy                         -1054.89339404
 Two electron energy                           315.66345228
 Virial ratio                                    2.00025134
 
 !MCSCF STATE 3.4 Dipole moment                  0.00000000     0.00000000    -0.75893792
 Dipole moment /Debye                            0.00000000     0.00000000    -1.92902779
 
 State-averaged charge density matrix saved on record 2140.2 (density set 1)
 
 Expectation values: (only non-zero values are shown)
 
 !MCSCF expec                       <1.4|DMZ|1.4>    -0.286436568777 au =    -0.728049138482 Debye
 !MCSCF expec                       <2.4|DMZ|2.4>    -0.330830560262 au =    -0.840887409771 Debye
 !MCSCF expec                       <3.4|DMZ|3.4>    -0.758937924993 au =    -1.929027794225 Debye
 
 
 Natural orbital dump (state averaged) at molpro section 2140.2 (Orbital set 2)
 
 Reoptimze the CI vectors with natural orbitals 
 
 CI Coefficients of symmetry 4
 =============================
 
 2200 2a 2a     -0.00000000      0.02735417      0.90482683
 2220 2a a0      0.69151806      0.68938521     -0.02288689
 2220 a0 2a     -0.69151806      0.68938521     -0.02288689
 2020 2a 2a      0.00000000      0.02865125     -0.22036621
 2ba0 2a 2a      0.00000000      0.02033855     -0.17815727
 2aa0 2a 2b      0.00914740      0.01006691      0.15808628
 2aa0 2b 2a     -0.00914740      0.01006691      0.15808628
 2ab0 2a 2a     -0.00000000     -0.04047237     -0.13801530
 2220 0a 2a     -0.00236290     -0.01546165     -0.06026956
 2220 2a 0a      0.00236290     -0.01546165     -0.06026956
 2200 a2 2a      0.05780206     -0.05903682      0.00695928
 2200 2a a2     -0.05780206     -0.05903682      0.00695928
 2020 a2 2a      0.05280957     -0.05569043     -0.00044418
 2020 2a a2     -0.05280957     -0.05569043     -0.00044418
 2ab0 a2 2a     -0.05127019      0.05290627      0.03905637
 2ab0 2a a2      0.05127019      0.05290627      0.03905637
 baab 2a 2a      0.00000000      0.00111934      0.05260993
 
 Energy:      -686.45291833   -686.44728476   -686.31222067
 


 **********************************************************************************************************************************
 DATASETS  * FILE   NREC   LENGTH (MB)   RECORD NAMES
              1      21      546.32       500      700      610      701      900      950      970     1000      129      960   
                                          VAR     GEOM    BASINP    GEOM    SYMINP    ZMAT    AOBASIS   BASIS     P2S    ABASIS    
                                         1100     1400     1410     1200     1210     1080     1600     1650     1300     1700   
                                           S        T        V       H0       H01     AOSYM     SMH    MOLCAS    ERIS     OPER   
                                         1380   
                                         JKOP   

              2       8       18.31       500      610      700     1000      520     2100     2140      701   
                                          VAR    BASINP    GEOM     BASIS   MCVARS     RHF     MCSCF    GEOM   

 PROGRAMS   *        TOTAL     MULTI       INT   RESTART
 CPU TIMES  *        42.22      2.58     39.54      0.01
 REAL TIME  *        43.89 SEC
 DISK USED  *         1.77 GB
 **********************************************************************************************************************************


 PROGRAM * CI (Multireference internally contracted CI)     Authors: H.-J. Werner, P.J. Knowles, 1987


 Convergence thresholds:  THRVAR = 1.00D-08  THRDEN = 1.00D-06

 Number of optimized states: 2  Roots:    1   2
 Number of reference states: 2  Roots:    1   2

 Program parameters:       NSTATE=  2    NSTATI=  3    NSTATR=  2    NCEPA = -1    NOKOP =  0    ITRDM =  0    ITRANS=  0
                           IDIP  =200    MAXIT =250    MAXITI=250    MAXDAV=  6    MAXVI =  9    NOSING=  0    NOPAIR=  0
                           MXSHRF=  5    IKCPS =  0    IOPTGM=  2    IOPTOR=  0    REFOPT=  1    IAVDEN=  0    IDELCG=  1
                           IREST =  0    NATORB=  0    IPUNRF=  0    ISEP  =  0    OLDDEN=  0    NSTPRI=  1    GPSFLI= -1
                           CLUSTE=  0    CLOSED=  1    ILSTYP=  0    ITRLS =  0    ICCSD =  0    LOCAL =  0    IBASO =  0
                           MP    =  0    ITEDIS=  2    INCDIS=  1    MAXDIS=  6    ITYDIS=  1    BRUECK=  0    IBRSTR=  3
                           INCBRK=  1    TRIPLE=  0    ICCTYP=  2    IHPPD =  0    ICCNEW=  0    I3EXT = -1    IDEB  =  0
                           IDLEIG=  1    IDFTYP=  1    IMP3  =  0    IPROCS=  0    NOINT =  0    NOREF =  1    IMP2G =  0
                           IHINT =  0    IFDIA =  0    ISPARO=  1    JKSYM =  0    CPHF  =  0    MP2D  = -1    DKINT =  0
                           NPKEX =  1    DRVK  =  1    HLSTRA=  1    WIGNER=  1    DIIS_C=  1    MAXIT_= 50    MATEL =  0
                           SPDEG =  1    MEMCPH=  0    DISM  =  1    KDCPMA=  5    IKDCP_=  0    IREDTH=  0    USECS =  0
                           IPROCC=  0    I3SAVE=  1    IKDCP =  1    USECI =  0    OLDPAI=  0    IPROCI=  0    KEEPCL=  1
                           DISCON=  0    SHIFTE=  0    DIISIN=  0    MOLCAS=  0    MEM_PT=  0    RECORD=  0    RS2C  =  0
                           KEXT  = -1    CIPT2 =  0    DECP0S=  0    I4EXT = -1    NATCOR=  0    RIMP2 =  0    DDCI  = -1
                           IPOLAR=  0

 Reference symmetry:                   4   Triplet 
 Number of electrons:                 30
 Maximum number of shells:             5
 Maximum number of spin couplings:    90

 Reference space:      160 conf      384 CSFs
 N elec internal:      728 conf     1512 CSFs
 N-1 el internal:     1012 conf     3692 CSFs
 N-2 el internal:      928 conf     6529 CSFs

 Number of electrons in valence space:                     10
 Maximum number of open shell orbitals in reference space:  6
 Maximum number of open shell orbitals in internal spaces: 10


 Number of core orbitals:          10 (   6   2   2   0 )
 Number of active  orbitals:        8 (   4   2   2   0 )
 Number of external orbitals:     244 (  86  60  60  38 )

 Molecular orbitals read from record     2140.2  Type=MCSCF/NATURAL (state averaged)

 Valence orbitals related to previous ones by unitary transformation. Operators transformed.


 Number of p-space configurations:  18

 Reference wavefunction optimized for reference space (refopt=1)

 State     Reference Energy 
     1      -686.45291833
     2      -686.44728476
     3      -686.31222067

 Number of blocks in overlap matrix:     8   Smallest eigenvalue:  0.23D-02
 Number of N-2 electron functions:     128
 Number of N-1 electron functions:    3692

 Number of internal configurations:                  384
 Number of singly external configurations:        224728
 Number of doubly external configurations:        972960
 Total number of contracted configurations:      1198072
 Total number of uncontracted configurations:   48879436

 Diagonal Coupling coefficients finished.               Storage:  295058 words, CPU-Time:      0.05 seconds.
 Energy denominators for pairs finished in 1 passes.    Storage:  451592 words, CPU-time:      0.02 seconds.

  ITER. STATE  ROOT     SQ.NORM     CORR.ENERGY   TOTAL ENERGY   ENERGY CHANGE       DEN1      VAR(S)    VAR(P)      TIME
    1     1     1     1.00000000     0.00000000  -686.45291833    -0.00000000    -0.23877159  0.63D-01  0.54D-01     0.50
    1     2     2     1.00000000     0.00000000  -686.44728476     0.00000000    -0.23661332  0.60D-01  0.55D-01     0.50
    2     1     1     1.10623872    -0.22793693  -686.68085526    -0.22793693    -0.00669863  0.16D-02  0.14D-02     7.98
    2     2     2     1.10460128    -0.22623266  -686.67351742    -0.22623266    -0.00650517  0.15D-02  0.14D-02     7.98
    3     1     1     1.11517924    -0.23560441  -686.68852274    -0.00766748    -0.00050623  0.13D-03  0.98D-04    15.47
    3     2     2     1.11286720    -0.23367086  -686.68095562    -0.00743820    -0.00049107  0.12D-03  0.99D-04    15.47
    4     1     1     1.11858990    -0.23619332  -686.68911165    -0.00058891    -0.00006158  0.20D-04  0.95D-05    22.90
    4     2     2     1.11587498    -0.23423969  -686.68152445    -0.00056883    -0.00005862  0.18D-04  0.97D-05    22.90
    5     1     1     1.11924945    -0.23625991  -686.68917824    -0.00006659    -0.00000879  0.29D-05  0.12D-05    30.30
    5     2     2     1.11642025    -0.23430298  -686.68158774    -0.00006329    -0.00000802  0.24D-05  0.12D-05    30.30
    6     1     1     1.11934777    -0.23626917  -686.68918750    -0.00000926    -0.00000120  0.40D-06  0.17D-06    37.70
    6     2     2     1.11648608    -0.23431139  -686.68159614    -0.00000841    -0.00000105  0.32D-06  0.17D-06    37.70
    7     1     1     1.11941305    -0.23627045  -686.68918878    -0.00000128    -0.00000022  0.83D-07  0.28D-07    45.06
    7     2     2     1.11653438    -0.23431250  -686.68159726    -0.00000111    -0.00000018  0.64D-07  0.27D-07    45.06
    8     1     1     1.11944852    -0.23627068  -686.68918900    -0.00000023    -0.00000004  0.15D-07  0.46D-08    52.42
    8     2     2     1.11656272    -0.23431269  -686.68159745    -0.00000019    -0.00000003  0.11D-07  0.44D-08    52.42
    9     1     1     1.11945940    -0.23627072  -686.68918904    -0.00000004    -0.00000001  0.29D-08  0.81D-09    59.82
    9     2     2     1.11657070    -0.23431272  -686.68159748    -0.00000003    -0.00000001  0.20D-08  0.76D-09    59.82


 =====================================
 Analysis of CPU times by interactions
 =====================================

       I      S      P

 I   0.2%
 S   0.2%   3.2%
 P   0.6%  12.3%  41.2%

 Initialization:   0.7%
 Other:           41.7%

 Total CPU:       59.8 seconds
 =====================================



 gnormi=  0.89328832  gnorms=  0.05191909  gnormp=  0.05479259  gnorm=  1.00000000
 ecorri= -0.21105787  ecorrs= -0.01226754  ecorrp= -0.01294531  ecorr= -0.23627072

 gnormi=  0.89559936  gnorms=  0.04811962  gnormp=  0.05628103  gnorm=  1.00000000
 ecorri= -0.20985032  ecorrs= -0.01127526  ecorrp= -0.01318714  ecorr= -0.23431272

 Reference coefficients greater than 0.0500000
 =============================================
 22202//0           0.6557027   0.6551640
 2220/02/          -0.6557027   0.6551640
 2/\0/22/          -0.0569572   0.0599291
 2/\02//2           0.0569572   0.0599291
 2200/22/           0.0484667  -0.0506328
 22002//2          -0.0484666  -0.0506327

 Coefficients of fixed reference functions:
 ==========================================

 State      Coefficients
 1           0.944600    0.000000
 2          -0.000000    0.945930

 Coefficients of rotated reference functions:
 ============================================

 State      Coefficients
 1           0.944600   -0.000000
 2          -0.000000    0.945930


 RESULTS FOR STATE 1.4
 =====================

 Coefficient of reference function:   C(0) = 0.94459962 (fixed)   0.94513931 (relaxed)   0.94459962 (rotated)

 Energy contributions of configuration classes

 CLASS          SQ.NORM        ECORR1        ECORR2
 +++++++++++++++++++++++++++++++++++++++++++++++++++
 Internals    0.00114302   -0.00000000   -0.13814518
 Singles      0.05818775   -0.08171608   -0.08518022
 Pairs        0.06140819   -0.00000002   -0.01294532
 Total        1.12073896   -0.08171610   -0.23627072
 +++++++++++++++++++++++++++++++++++++++++++++++++++


 Reference energy                    -686.45291833
 Nuclear energy                        52.91772109
 Kinetic energy                       686.63493996
 One electron energy                -1055.97266350
 Two electron energy                  316.36575337
 Virial quotient                       -1.00007901
 Correlation energy                    -0.23627072
 !MRCI STATE 1.4 Energy              -686.689189044962

 Properties without orbital relaxation:

 !MRCI STATE 1.4 Dipole moment          0.00000000     0.00000000    -0.28236723
 Dipole moment /Debye                   0.00000000     0.00000000    -0.71770592

 Cluster corrected energies          -686.71771613 (Davidson, fixed reference)
 Cluster corrected energies          -686.71741380 (Davidson, relaxed reference)
 Cluster corrected energies          -686.71771613 (Davidson, rotated reference)

 Cluster corrected energies          -686.71188890 (Pople, fixed reference)
 Cluster corrected energies          -686.71163460 (Pople, relaxed reference)
 Cluster corrected energies          -686.71188890 (Pople, rotated reference)



 RESULTS FOR STATE 2.4
 =====================

 Coefficient of reference function:   C(0) = 0.94593021 (fixed)   0.94636111 (relaxed)   0.94593021 (rotated)

 Energy contributions of configuration classes

 CLASS          SQ.NORM        ECORR1        ECORR2
 +++++++++++++++++++++++++++++++++++++++++++++++++++
 Internals    0.00091127   -0.00000000   -0.00019106
 Singles      0.05377791   -0.07720673   -0.08035861
 Pairs        0.06289901   -0.15710599   -0.15376306
 Total        1.11758820   -0.23431272   -0.23431272
 +++++++++++++++++++++++++++++++++++++++++++++++++++


 Reference energy                    -686.44728476
 Nuclear energy                        52.91772109
 Kinetic energy                       686.64804411
 One electron energy                -1055.98633762
 Two electron energy                  316.38701905
 Virial quotient                       -1.00004887
 Correlation energy                    -0.23431272
 !MRCI STATE 2.4 Energy              -686.681597479458

 Properties without orbital relaxation:

 !MRCI STATE 2.4 Dipole moment          0.00000000     0.00000000    -0.33636114
 Dipole moment /Debye                   0.00000000     0.00000000    -0.85494475

 Cluster corrected energies          -686.70914989 (Davidson, fixed reference)
 Cluster corrected energies          -686.70891148 (Davidson, relaxed reference)
 Cluster corrected energies          -686.70914989 (Davidson, rotated reference)

 Cluster corrected energies          -686.70348874 (Pople, fixed reference)
 Cluster corrected energies          -686.70328874 (Pople, relaxed reference)
 Cluster corrected energies          -686.70348874 (Pople, rotated reference)


 !MRCI trans          <2.4|DMZ|1.4>    -0.000000132071 au =    -0.000000335690 Debye


 **********************************************************************************************************************************
 DATASETS  * FILE   NREC   LENGTH (MB)   RECORD NAMES
              1      21      546.32       500      700      610      701      900      950      970     1000      129      960   
                                          VAR     GEOM    BASINP    GEOM    SYMINP    ZMAT    AOBASIS   BASIS     P2S    ABASIS    
                                         1100     1400     1410     1200     1210     1080     1600     1650     1300     1700   
                                           S        T        V       H0       H01     AOSYM     SMH    MOLCAS    ERIS     OPER   
                                         1380   
                                         JKOP   

              2       8       18.31       500      610      700     1000      520     2100     2140      701   
                                          VAR    BASINP    GEOM     BASIS   MCVARS     RHF     MCSCF    GEOM   

 PROGRAMS   *        TOTAL        CI     MULTI       INT   RESTART
 CPU TIMES  *       102.30     60.07      2.58     39.54      0.01
 REAL TIME  *       106.34 SEC
 DISK USED  *         1.77 GB
 **********************************************************************************************************************************
 SETTING E1(1)          =      -686.68918904  AU                              
 SETTING E2(1)          =      -686.68159748  AU                              

 DO I                   =         2.00000000   


 Using spherical harmonics

 Library entry SI     S aug-cc-pV5Z          selected for orbital group  1
 Library entry SI     P aug-cc-pV5Z          selected for orbital group  1
 Library entry SI     D aug-cc-pV5Z          selected for orbital group  1
 Library entry SI     F aug-cc-pV5Z          selected for orbital group  1
 Library entry SI     G aug-cc-pV5Z          selected for orbital group  1
 Library entry SI     H aug-cc-pV5Z          selected for orbital group  1
 Library entry S      S aug-cc-pV5Z          selected for orbital group  2
 Library entry S      P aug-cc-pV5Z          selected for orbital group  2
 Library entry S      D aug-cc-pV5Z          selected for orbital group  2
 Library entry S      F aug-cc-pV5Z          selected for orbital group  2
 Library entry S      G aug-cc-pV5Z          selected for orbital group  2
 Library entry S      H aug-cc-pV5Z          selected for orbital group  2


 PROGRAM * SEWARD (Integral evaluation for generally contracted gaussian basis sets)     Author: Roland Lindh, 1990

 Geometry written to block  1 of record 701

 Orientation using atomic masses  
 Molecule type: Linear
 Symmetry elements: X,Y
 Rotational constants:       6.7883609      6.7883609      0.0000000 GHz  (calculated with average atomic masses)

 Point group  C2v 



 ATOMIC COORDINATES

 NR  ATOM    CHARGE       X              Y              Z

   1  SI     14.00    0.000000000    0.000000000   -2.246281128
   2  S      16.00    0.000000000    0.000000000    1.967808130

 Bond lengths in Bohr (Angstrom)

 1-2  4.214089258
     ( 2.230000000)

 NUCLEAR CHARGE:                   30
 NUMBER OF PRIMITIVE AOS:         434
 NUMBER OF SYMMETRY AOS:          324
 NUMBER OF CONTRACTIONS:          262   (   96A1  +   64B1  +   64B2  +   38A2  )
 NUMBER OF INNER CORE ORBITALS:     2   (    2A1  +    0B1  +    0B2  +    0A2  )
 NUMBER OF OUTER CORE ORBITALS:     8   (    4A1  +    2B1  +    2B2  +    0A2  )
 NUMBER OF VALENCE ORBITALS:        8   (    4A1  +    2B1  +    2B2  +    0A2  )


 NUCLEAR REPULSION ENERGY   53.15502029

 EXTRA SYMMETRY OF AOS IN SYMMETRY 1:   1 1 1 1 1 1 1 1 1 1   1 1 1 1 1 1 2 1 2 1   2 1 2 1 2 1 2 1 2 1   2 1 2 1 3 2 1 3 2 1
                                        3 2 2 3 1 2 3 1 1 1   1 1 1 1 1 1 1 1 1 1   1 1 1 1 2 1 2 1 2 1   2 1 2 1 2 1 2 1 2 1
                                        2 1 3 2 1 3 2 1 3 2   2 3 1 2 3 1
 EXTRA SYMMETRY OF AOS IN SYMMETRY 2:   1 1 1 1 1 1 1 1 1 1   1 1 1 2 1 2 1 2 1 2   1 2 1 2 1 2 1 2 3 1   2 3 1 1 1 1 1 1 1 1
                                        1 1 1 1 1 2 1 2 1 2   1 2 1 2 1 2 1 2 1 2   3 1 2 3
 EXTRA SYMMETRY OF AOS IN SYMMETRY 3:   1 1 1 1 1 1 1 1 1 1   1 1 1 2 1 2 1 2 1 2   1 2 1 2 1 2 1 2 3 1   2 3 1 1 1 1 1 1 1 1
                                        1 1 1 1 1 2 1 2 1 2   1 2 1 2 1 2 1 2 1 2   3 1 2 3
 EXTRA SYMMETRY OF AOS IN SYMMETRY 4:   1 1 1 1 1 1 1 1 1 1   2 1 2 1 2 2 1 2 1 1   1 1 1 1 1 1 1 1 1 2   1 2 1 2 2 1 2 1

 Eigenvalues of metric

         1 0.774E-05 0.854E-05 0.196E-04 0.264E-04 0.507E-04 0.345E-03 0.490E-03 0.142E-02
         2 0.904E-05 0.107E-04 0.394E-03 0.240E-02 0.783E-02 0.128E-01 0.262E-01 0.313E-01
         3 0.904E-05 0.107E-04 0.394E-03 0.240E-02 0.783E-02 0.128E-01 0.262E-01 0.313E-01
         4 0.574E-02 0.184E-01 0.403E-01 0.579E-01 0.647E-01 0.731E-01 0.103E+00 0.144E+00


 Contracted 2-electron integrals neglected if value below      1.0D-12
 AO integral compression algorithm  1   Integral accuracy      1.0D-12

     624.165 MB (compressed) written to integral file ( 43.0%)


 NUMBER OF SORTED TWO-ELECTRON INTEGRALS:  150955559.     BUFFER LENGTH:  32768
 NUMBER OF SEGMENTS:  10  SEGMENT LENGTH:   15998976      RECORD LENGTH: 524288

 Memory used in sort:      16.56 MW

 SORT1 READ   181316810. AND WROTE   100533100. INTEGRALS IN    293 RECORDS. CPU TIME:     2.07 SEC, REAL TIME:     2.59 SEC
 SORT2 READ   100533100. AND WROTE   150955559. INTEGRALS IN   2381 RECORDS. CPU TIME:     1.59 SEC, REAL TIME:     1.88 SEC

 FILE SIZES:   FILE 1:   655.9 MBYTE,  FILE 4:  1229.0 MBYTE,   TOTAL:   1884.8 MBYTE

 OPERATOR DM      FOR CENTER  0  COORDINATES:    0.000000    0.000000    0.000000


 **********************************************************************************************************************************
 DATASETS  * FILE   NREC   LENGTH (MB)   RECORD NAMES
              1      20      511.75       500      700      610      701      900      950      970     1000      129      960   
                                          VAR     GEOM    BASINP    GEOM    SYMINP    ZMAT    AOBASIS   BASIS     P2S    ABASIS    
                                         1100     1400     1410     1200     1210     1080     1600     1650     1300     1700   
                                           S        T        V       H0       H01     AOSYM     SMH    MOLCAS    ERIS     OPER   

              2       8       18.31       500      610      700     1000      520     2100     2140      701   
                                          VAR    BASINP    GEOM     BASIS   MCVARS     RHF     MCSCF    GEOM   

 PROGRAMS   *        TOTAL       INT        CI     MULTI       INT   RESTART
 CPU TIMES  *       142.08     39.77     60.07      2.58     39.54      0.01
 REAL TIME  *       147.39 SEC
 DISK USED  *         1.77 GB
 **********************************************************************************************************************************

 PROGRAM * MULTI (Direct Multiconfiguration SCF)       Authors: P.J. Knowles, H.-J. Werner (1984)
                                                                D.A. Kreplin, P.J. Knowles, H.-J. Werner (2019)

 Number of closed-shell orbitals:  10 (   6   2   2   0 )
 Number of active  orbitals:        8 (   4   2   2   0 )
 Number of external orbitals:     244 (  86  60  60  38 )

 State symmetry 1

 Number of active electrons:  10    Spin symmetry=Triplet   Space symmetry=4
 Number of states:             3
 Number of CSFs:             384   (504 determinants, 1960 intermediate states)

 Molecular orbitals read from record     2140.2  Type=MCSCF/NATURAL (state averaged)

 EXTRA SYMMETRY OF MOS IN SYMMETRY 1:   1 1 1 1 1 1 1 1 1 1   1 1 1 2 1 1 1 2 1 2   1 1 2 1 1 1 2 2 1 3   1 2 1 2 1 2 1 3 1 1
                                        2 2 1 1 2 1 2 1 3 3   1 2 1 1 2 2 1 1 2 3   3 1 2 1 2 1 1 2 1 2   1 3 3 2 1 1 2 1 1 2
                                        1 3 2 1 3 2 2 1 1 1   2 1 1 1 1 1
 EXTRA SYMMETRY OF MOS IN SYMMETRY 2:   1 1 1 1 1 1 1 1 2 1   1 1 1 2 1 1 2 2 1 1   1 1 2 2 1 1 1 2 1 3   2 1 1 2 1 2 1 3 2 1
                                        1 2 1 2 1 1 1 1 2 3   2 1 1 2 1 2 3 2 1 1   1 1 1 1
 EXTRA SYMMETRY OF MOS IN SYMMETRY 3:   1 1 1 1 1 1 1 1 2 1   1 1 1 2 1 1 2 2 1 1   1 1 2 2 1 1 1 2 1 3   2 1 1 2 1 2 1 3 2 1
                                        1 2 1 2 1 1 1 1 2 3   2 1 1 2 1 2 3 2 1 1   1 1 1 1
 EXTRA SYMMETRY OF MOS IN SYMMETRY 4:   1 1 1 1 1 1 2 1 1 1   2 1 1 1 1 2 2 1 1 1   1 2 2 1 1 1 1 2 2 1   1 1 2 1 2 1 1 1

 Wavefunction dump at record             2140.2

 Convergence thresholds  0.10E-04 (gradient)  0.10E-05 (energy)

 Weight factors for state symmetry  1:    0.33333   0.33333   0.33333
 
 Number of orbital rotations:  1372  ( 32 closed/active, 756 closed/virtual, 0 active/active, 584 active/virtual )
 Total number of variables:    2884
 
  Second-order MCSCF: L-BFGS accelerated
 
 ITER  MIC  NCI  NEG     ENERGY(VAR)    ENERGY(PROJ) ENERGY CHANGE       GRAD(0)  GRAD(ORB)   GRAD(CI)      STEP      TIME
   1   11   19    0   -686.40416146    -686.40417021   -0.00000875    0.00388015 0.00001148 0.00001117  0.11E-01      1.58
   2   15   21    0   -686.40417021    -686.40417021   -0.00000000    0.00000604 0.00000001 0.00000009  0.19E-03      3.23

 CONVERGENCE REACHED!  Final gradient:    0.00000003 ( 0.34E-07)
                       Final energy:   -686.40417021
 
 Results for state 1.4
 =====================
 !MCSCF STATE 1.4 Energy                      -686.452995710111
 Nuclear energy                                 53.15502029
 Kinetic energy                                686.53652403
 One electron energy                         -1056.54536407
 Two electron energy                           316.93734807
 Virial ratio                                    1.99987833
 
 !MCSCF STATE 1.4 Dipole moment                  0.00000000     0.00000000    -0.26783639
 Dipole moment /Debye                            0.00000000     0.00000000    -0.68077219
 
 Results for state 2.4
 =====================
 !MCSCF STATE 2.4 Energy                      -686.447313861968
 Nuclear energy                                 53.15502029
 Kinetic energy                                686.54011290
 One electron energy                         -1056.55747104
 Two electron energy                           316.95513689
 Virial ratio                                    1.99986483
 
 !MCSCF STATE 2.4 Dipole moment                  0.00000000     0.00000000    -0.31208025
 Dipole moment /Debye                            0.00000000     0.00000000    -0.79322888
 
 Results for state 3.4
 =====================
 !MCSCF STATE 3.4 Energy                      -686.312201055386
 Nuclear energy                                 53.15502029
 Kinetic energy                                686.14359414
 One electron energy                         -1055.36543539
 Two electron energy                           315.89821404
 Virial ratio                                    2.00024573
 
 !MCSCF STATE 3.4 Dipole moment                  0.00000000     0.00000000    -0.75679657
 Dipole moment /Debye                            0.00000000     0.00000000    -1.92358502
 
 State-averaged charge density matrix saved on record 2140.2 (density set 1)
 
 Expectation values: (only non-zero values are shown)
 
 !MCSCF expec                       <1.4|DMZ|1.4>    -0.267836386320 au =    -0.680772190321 Debye
 !MCSCF expec                       <2.4|DMZ|2.4>    -0.312080253835 au =    -0.793228884538 Debye
 !MCSCF expec                       <3.4|DMZ|3.4>    -0.756796574034 au =    -1.923585022977 Debye
 
 
 Natural orbital dump (state averaged) at molpro section 2140.2 (Orbital set 2)
 
 Reoptimze the CI vectors with natural orbitals 
 
 CI Coefficients of symmetry 4
 =============================
 
 2200 2a 2a     -0.00000000      0.02839425      0.90420865
 2220 2a a0      0.69161444      0.68940887     -0.02371366
 2220 a0 2a     -0.69161444      0.68940887     -0.02371366
 2020 2a 2a      0.00000000      0.02841667     -0.22222251
 2ba0 2a 2a      0.00000000      0.02059828     -0.17957876
 2aa0 2a 2b      0.00917714      0.01018029      0.15894224
 2aa0 2b 2a     -0.00917714      0.01018029      0.15894224
 2ab0 2a 2a     -0.00000000     -0.04095886     -0.13830571
 2200 a2 2a      0.05836975     -0.05963314      0.00593730
 2200 2a a2     -0.05836975     -0.05963314      0.00593730
 2220 2a 0a      0.00195074     -0.01572458     -0.05754871
 2220 0a 2a     -0.00195074     -0.01572458     -0.05754871
 2020 a2 2a      0.05240034     -0.05528709     -0.00048948
 2020 2a a2     -0.05240034     -0.05528709     -0.00048948
 baab 2a 2a      0.00000000      0.00116414      0.05300352
 2ab0 a2 2a     -0.05131235      0.05296814      0.03897134
 2ab0 2a a2      0.05131235      0.05296814      0.03897134
 
 Energy:      -686.45299571   -686.44731386   -686.31220106
 


 **********************************************************************************************************************************
 DATASETS  * FILE   NREC   LENGTH (MB)   RECORD NAMES
              1      21      546.85       500      700      610      701      900      950      970     1000      129      960   
                                          VAR     GEOM    BASINP    GEOM    SYMINP    ZMAT    AOBASIS   BASIS     P2S    ABASIS    
                                         1100     1400     1410     1200     1210     1080     1600     1650     1300     1700   
                                           S        T        V       H0       H01     AOSYM     SMH    MOLCAS    ERIS     OPER   
                                         1380   
                                         JKOP   

              2       8       18.31       500      610      700     1000      520     2100     2140      701   
                                          VAR    BASINP    GEOM     BASIS   MCVARS     RHF     MCSCF    GEOM   

 PROGRAMS   *        TOTAL     MULTI       INT        CI     MULTI       INT   RESTART
 CPU TIMES  *       146.21      4.14     39.77     60.07      2.58     39.54      0.01
 REAL TIME  *       151.99 SEC
 DISK USED  *         1.77 GB
 **********************************************************************************************************************************


 PROGRAM * CI (Multireference internally contracted CI)     Authors: H.-J. Werner, P.J. Knowles, 1987


 Convergence thresholds:  THRVAR = 1.00D-08  THRDEN = 1.00D-06

 Number of optimized states: 2  Roots:    1   2
 Number of reference states: 2  Roots:    1   2

 Program parameters:       NSTATE=  2    NSTATI=  3    NSTATR=  2    NCEPA = -1    NOKOP =  0    ITRDM =  0    ITRANS=  0
                           IDIP  =200    MAXIT =250    MAXITI=250    MAXDAV=  6    MAXVI =  9    NOSING=  0    NOPAIR=  0
                           MXSHRF=  5    IKCPS =  0    IOPTGM=  2    IOPTOR=  0    REFOPT=  1    IAVDEN=  0    IDELCG=  1
                           IREST =  0    NATORB=  0    IPUNRF=  0    ISEP  =  0    OLDDEN=  0    NSTPRI=  1    GPSFLI= -1
                           CLUSTE=  0    CLOSED=  1    ILSTYP=  0    ITRLS =  0    ICCSD =  0    LOCAL =  0    IBASO =  0
                           MP    =  0    ITEDIS=  2    INCDIS=  1    MAXDIS=  6    ITYDIS=  1    BRUECK=  0    IBRSTR=  3
                           INCBRK=  1    TRIPLE=  0    ICCTYP=  2    IHPPD =  0    ICCNEW=  0    I3EXT = -1    IDEB  =  0
                           IDLEIG=  1    IDFTYP=  1    IMP3  =  0    IPROCS=  0    NOINT =  0    NOREF =  1    IMP2G =  0
                           IHINT =  0    IFDIA =  0    ISPARO=  1    JKSYM =  0    CPHF  =  0    MP2D  = -1    DKINT =  0
                           NPKEX =  1    DRVK  =  1    HLSTRA=  1    WIGNER=  1    DIIS_C=  1    MAXIT_= 50    MATEL =  0
                           SPDEG =  1    MEMCPH=  0    DISM  =  1    KDCPMA=  5    IKDCP_=  0    IREDTH=  0    USECS =  0
                           IPROCC=  0    I3SAVE=  1    IKDCP =  1    USECI =  0    OLDPAI=  0    IPROCI=  0    KEEPCL=  1
                           DISCON=  0    SHIFTE=  0    DIISIN=  0    MOLCAS=  0    MEM_PT=  0    RECORD=  0    RS2C  =  0
                           KEXT  = -1    CIPT2 =  0    DECP0S=  0    I4EXT = -1    NATCOR=  0    RIMP2 =  0    DDCI  = -1
                           IPOLAR=  0

 Reference symmetry:                   4   Triplet 
 Number of electrons:                 30
 Maximum number of shells:             5
 Maximum number of spin couplings:    90

 Reference space:      160 conf      384 CSFs
 N elec internal:      728 conf     1512 CSFs
 N-1 el internal:     1012 conf     3692 CSFs
 N-2 el internal:      928 conf     6529 CSFs

 Number of electrons in valence space:                     10
 Maximum number of open shell orbitals in reference space:  6
 Maximum number of open shell orbitals in internal spaces: 10


 Number of core orbitals:          10 (   6   2   2   0 )
 Number of active  orbitals:        8 (   4   2   2   0 )
 Number of external orbitals:     244 (  86  60  60  38 )

 Molecular orbitals read from record     2140.2  Type=MCSCF/NATURAL (state averaged)

 Valence orbitals related to previous ones by unitary transformation. Operators transformed.


 Number of p-space configurations:  18

 Reference wavefunction optimized for reference space (refopt=1)

 State     Reference Energy 
     1      -686.45299571
     2      -686.44731386
     3      -686.31220106

 Number of blocks in overlap matrix:     8   Smallest eigenvalue:  0.23D-02
 Number of N-2 electron functions:     128
 Number of N-1 electron functions:    3692

 Number of internal configurations:                  384
 Number of singly external configurations:        224728
 Number of doubly external configurations:        972960
 Total number of contracted configurations:      1198072
 Total number of uncontracted configurations:   48879436

 Diagonal Coupling coefficients finished.               Storage:  295058 words, CPU-Time:      0.05 seconds.
 Energy denominators for pairs finished in 1 passes.    Storage:  451592 words, CPU-time:      0.02 seconds.

  ITER. STATE  ROOT     SQ.NORM     CORR.ENERGY   TOTAL ENERGY   ENERGY CHANGE       DEN1      VAR(S)    VAR(P)      TIME
    1     1     1     1.00000000     0.00000000  -686.45299571     0.00000000    -0.23888026  0.63D-01  0.54D-01     0.51
    1     2     2     1.00000000     0.00000000  -686.44731386     0.00000000    -0.23668310  0.60D-01  0.55D-01     0.51
    2     1     1     1.10619732    -0.22802254  -686.68101825    -0.22802254    -0.00672275  0.16D-02  0.14D-02     7.97
    2     2     2     1.10453640    -0.22629143  -686.67360529    -0.22629143    -0.00652767  0.15D-02  0.14D-02     7.97
    3     1     1     1.11516253    -0.23571885  -686.68871456    -0.00769631    -0.00050820  0.13D-03  0.98D-04    15.46
    3     2     2     1.11281748    -0.23375637  -686.68107023    -0.00746494    -0.00049293  0.12D-03  0.10D-03    15.46
    4     1     1     1.11859910    -0.23631162  -686.68930733    -0.00059277    -0.00006156  0.20D-04  0.96D-05    22.97
    4     2     2     1.11584467    -0.23432885  -686.68164271    -0.00057248    -0.00005859  0.18D-04  0.97D-05    22.97
    5     1     1     1.11926144    -0.23637841  -686.68937412    -0.00006679    -0.00000877  0.28D-05  0.12D-05    30.42
    5     2     2     1.11639133    -0.23439230  -686.68170616    -0.00006345    -0.00000800  0.24D-05  0.12D-05    30.42
    6     1     1     1.11935996    -0.23638768  -686.68938339    -0.00000927    -0.00000120  0.39D-06  0.17D-06    37.90
    6     2     2     1.11645712    -0.23440070  -686.68171456    -0.00000841    -0.00000105  0.31D-06  0.17D-06    37.90
    7     1     1     1.11942561    -0.23638896  -686.68938467    -0.00000128    -0.00000022  0.82D-07  0.28D-07    45.40
    7     2     2     1.11650565    -0.23440181  -686.68171567    -0.00000111    -0.00000018  0.64D-07  0.27D-07    45.40
    8     1     1     1.11946108    -0.23638918  -686.68938489    -0.00000023    -0.00000004  0.15D-07  0.46D-08    52.80
    8     2     2     1.11653402    -0.23440200  -686.68171586    -0.00000019    -0.00000003  0.10D-07  0.44D-08    52.80
    9     1     1     1.11947193    -0.23638922  -686.68938493    -0.00000004    -0.00000001  0.29D-08  0.81D-09    60.16
    9     2     2     1.11654196    -0.23440203  -686.68171590    -0.00000003    -0.00000001  0.20D-08  0.75D-09    60.16


 =====================================
 Analysis of CPU times by interactions
 =====================================

       I      S      P

 I   0.2%
 S   0.1%   3.1%
 P   0.5%  12.4%  41.3%

 Initialization:   0.7%
 Other:           41.6%

 Total CPU:       60.2 seconds
 =====================================



 gnormi=  0.89327832  gnorms=  0.05190800  gnormp=  0.05481368  gnorm=  1.00000000
 ecorri= -0.21116137  ecorrs= -0.01227107  ecorrp= -0.01295679  ecorr= -0.23638922

 gnormi=  0.89562241  gnorms=  0.04806255  gnormp=  0.05631504  gnorm=  1.00000000
 ecorri= -0.20993571  ecorrs= -0.01126619  ecorrp= -0.01320013  ecorr= -0.23440203

 Reference coefficients greater than 0.0500000
 =============================================
 22202//0          -0.6558004   0.6552093
 2220/02/           0.6558004   0.6552093
 2/\0/22/           0.0569790   0.0600024
 2/\02//2          -0.0569789   0.0600024
 2200/22/          -0.0489301  -0.0511527
 22002//2           0.0489300  -0.0511527

 Coefficients of fixed reference functions:
 ==========================================

 State      Coefficients
 1           0.944590   -0.000000
 2           0.000000    0.945942

 Coefficients of rotated reference functions:
 ============================================

 State      Coefficients
 1           0.944590    0.000000
 2           0.000000    0.945942


 RESULTS FOR STATE 1.4
 =====================

 Coefficient of reference function:   C(0) = 0.94459048 (fixed)   0.94513402 (relaxed)   0.94459048 (rotated)

 Energy contributions of configuration classes

 CLASS          SQ.NORM        ECORR1        ECORR2
 +++++++++++++++++++++++++++++++++++++++++++++++++++
 Internals    0.00115118   -0.00000000   -0.13823348
 Singles      0.05817644   -0.08173471   -0.08519896
 Pairs        0.06143302    0.00000002   -0.01295678
 Total        1.12076064   -0.08173470   -0.23638922
 +++++++++++++++++++++++++++++++++++++++++++++++++++


 Reference energy                    -686.45299571
 Nuclear energy                        53.15502029
 Kinetic energy                       686.64456515
 One electron energy                -1056.44447328
 Two electron energy                  316.60006806
 Virial quotient                       -1.00006527
 Correlation energy                    -0.23638922
 !MRCI STATE 1.4 Energy              -686.689384932228

 Properties without orbital relaxation:

 !MRCI STATE 1.4 Dipole moment          0.00000000     0.00000000    -0.26347216
 Dipole moment /Debye                   0.00000000     0.00000000    -0.66967944

 Cluster corrected energies          -686.71793145 (Davidson, fixed reference)
 Cluster corrected energies          -686.71762681 (Davidson, relaxed reference)
 Cluster corrected energies          -686.71793145 (Davidson, rotated reference)

 Cluster corrected energies          -686.71210049 (Pople, fixed reference)
 Cluster corrected energies          -686.71184423 (Pople, relaxed reference)
 Cluster corrected energies          -686.71210049 (Pople, rotated reference)



 RESULTS FOR STATE 2.4
 =====================

 Coefficient of reference function:   C(0) = 0.94594168 (fixed)   0.94637329 (relaxed)   0.94594168 (rotated)

 Energy contributions of configuration classes

 CLASS          SQ.NORM        ECORR1        ECORR2
 +++++++++++++++++++++++++++++++++++++++++++++++++++
 Internals    0.00091276   -0.00000000   -0.00019145
 Singles      0.05371284   -0.07717529   -0.08032308
 Pairs        0.06293550   -0.15722674   -0.15388751
 Total        1.11756109   -0.23440203   -0.23440203
 +++++++++++++++++++++++++++++++++++++++++++++++++++


 Reference energy                    -686.44731386
 Nuclear energy                        53.15502029
 Kinetic energy                       686.65761079
 One electron energy                -1056.45762622
 Two electron energy                  316.62089004
 Virial quotient                       -1.00003510
 Correlation energy                    -0.23440203
 !MRCI STATE 2.4 Energy              -686.681715895284

 Properties without orbital relaxation:

 !MRCI STATE 2.4 Dipole moment          0.00000000     0.00000000    -0.31706560
 Dipole moment /Debye                   0.00000000     0.00000000    -0.80590037

 Cluster corrected energies          -686.70927245 (Davidson, fixed reference)
 Cluster corrected energies          -686.70903357 (Davidson, relaxed reference)
 Cluster corrected energies          -686.70927245 (Davidson, rotated reference)

 Cluster corrected energies          -686.70361017 (Pople, fixed reference)
 Cluster corrected energies          -686.70340978 (Pople, relaxed reference)
 Cluster corrected energies          -686.70361017 (Pople, rotated reference)


 !MRCI trans          <2.4|DMZ|1.4>     0.000000113001 au =     0.000000287221 Debye


 **********************************************************************************************************************************
 DATASETS  * FILE   NREC   LENGTH (MB)   RECORD NAMES
              1      21      546.85       500      700      610      701      900      950      970     1000      129      960   
                                          VAR     GEOM    BASINP    GEOM    SYMINP    ZMAT    AOBASIS   BASIS     P2S    ABASIS    
                                         1100     1400     1410     1200     1210     1080     1600     1650     1300     1700   
                                           S        T        V       H0       H01     AOSYM     SMH    MOLCAS    ERIS     OPER   
                                         1380   
                                         JKOP   

              2       8       18.31       500      610      700     1000      520     2100     2140      701   
                                          VAR    BASINP    GEOM     BASIS   MCVARS     RHF     MCSCF    GEOM   

 PROGRAMS   *        TOTAL        CI     MULTI       INT        CI     MULTI       INT   RESTART
 CPU TIMES  *       206.62     60.41      4.14     39.77     60.07      2.58     39.54      0.01
 REAL TIME  *       214.77 SEC
 DISK USED  *         1.77 GB
 **********************************************************************************************************************************
 SETTING E1(2)          =      -686.68938493  AU                              
 SETTING E2(2)          =      -686.68171590  AU                              

 DO I                   =         3.00000000   


 Using spherical harmonics

 Library entry SI     S aug-cc-pV5Z          selected for orbital group  1
 Library entry SI     P aug-cc-pV5Z          selected for orbital group  1
 Library entry SI     D aug-cc-pV5Z          selected for orbital group  1
 Library entry SI     F aug-cc-pV5Z          selected for orbital group  1
 Library entry SI     G aug-cc-pV5Z          selected for orbital group  1
 Library entry SI     H aug-cc-pV5Z          selected for orbital group  1
 Library entry S      S aug-cc-pV5Z          selected for orbital group  2
 Library entry S      P aug-cc-pV5Z          selected for orbital group  2
 Library entry S      D aug-cc-pV5Z          selected for orbital group  2
 Library entry S      F aug-cc-pV5Z          selected for orbital group  2
 Library entry S      G aug-cc-pV5Z          selected for orbital group  2
 Library entry S      H aug-cc-pV5Z          selected for orbital group  2


 PROGRAM * SEWARD (Integral evaluation for generally contracted gaussian basis sets)     Author: Roland Lindh, 1990

 Geometry written to block  1 of record 701

 Orientation using atomic masses  
 Molecule type: Linear
 Symmetry elements: X,Y
 Rotational constants:       6.8496551      6.8496551      0.0000000 GHz  (calculated with average atomic masses)

 Point group  C2v 



 ATOMIC COORDINATES

 NR  ATOM    CHARGE       X              Y              Z

   1  SI     14.00    0.000000000    0.000000000   -2.236208119
   2  S      16.00    0.000000000    0.000000000    1.958983878

 Bond lengths in Bohr (Angstrom)

 1-2  4.195191997
     ( 2.220000000)

 NUCLEAR CHARGE:                   30
 NUMBER OF PRIMITIVE AOS:         434
 NUMBER OF SYMMETRY AOS:          324
 NUMBER OF CONTRACTIONS:          262   (   96A1  +   64B1  +   64B2  +   38A2  )
 NUMBER OF INNER CORE ORBITALS:     2   (    2A1  +    0B1  +    0B2  +    0A2  )
 NUMBER OF OUTER CORE ORBITALS:     8   (    4A1  +    2B1  +    2B2  +    0A2  )
 NUMBER OF VALENCE ORBITALS:        8   (    4A1  +    2B1  +    2B2  +    0A2  )


 NUCLEAR REPULSION ENERGY   53.39445732

 EXTRA SYMMETRY OF AOS IN SYMMETRY 1:   1 1 1 1 1 1 1 1 1 1   1 1 1 1 1 1 2 1 2 1   2 1 2 1 2 1 2 1 2 1   2 1 2 1 3 2 1 3 2 1
                                        3 2 2 3 1 2 3 1 1 1   1 1 1 1 1 1 1 1 1 1   1 1 1 1 2 1 2 1 2 1   2 1 2 1 2 1 2 1 2 1
                                        2 1 3 2 1 3 2 1 3 2   2 3 1 2 3 1
 EXTRA SYMMETRY OF AOS IN SYMMETRY 2:   1 1 1 1 1 1 1 1 1 1   1 1 1 2 1 2 1 2 1 2   1 2 1 2 1 2 1 2 3 1   2 3 1 1 1 1 1 1 1 1
                                        1 1 1 1 1 2 1 2 1 2   1 2 1 2 1 2 1 2 1 2   3 1 2 3
 EXTRA SYMMETRY OF AOS IN SYMMETRY 3:   1 1 1 1 1 1 1 1 1 1   1 1 1 2 1 2 1 2 1 2   1 2 1 2 1 2 1 2 3 1   2 3 1 1 1 1 1 1 1 1
                                        1 1 1 1 1 2 1 2 1 2   1 2 1 2 1 2 1 2 1 2   3 1 2 3
 EXTRA SYMMETRY OF AOS IN SYMMETRY 4:   1 1 1 1 1 1 1 1 1 1   2 1 2 1 2 2 1 2 1 1   1 1 1 1 1 1 1 1 1 2   1 2 1 2 2 1 2 1

 Eigenvalues of metric

         1 0.772E-05 0.850E-05 0.195E-04 0.264E-04 0.501E-04 0.339E-03 0.483E-03 0.140E-02
         2 0.904E-05 0.107E-04 0.386E-03 0.236E-02 0.761E-02 0.126E-01 0.261E-01 0.305E-01
         3 0.904E-05 0.107E-04 0.386E-03 0.236E-02 0.761E-02 0.126E-01 0.261E-01 0.305E-01
         4 0.555E-02 0.181E-01 0.399E-01 0.578E-01 0.644E-01 0.729E-01 0.102E+00 0.143E+00


 Contracted 2-electron integrals neglected if value below      1.0D-12
 AO integral compression algorithm  1   Integral accuracy      1.0D-12

     624.689 MB (compressed) written to integral file ( 43.1%)


 NUMBER OF SORTED TWO-ELECTRON INTEGRALS:  150955559.     BUFFER LENGTH:  32768
 NUMBER OF SEGMENTS:  10  SEGMENT LENGTH:   15998976      RECORD LENGTH: 524288

 Memory used in sort:      16.56 MW

 SORT1 READ   181316810. AND WROTE   100537456. INTEGRALS IN    293 RECORDS. CPU TIME:     2.10 SEC, REAL TIME:     2.58 SEC
 SORT2 READ   100537456. AND WROTE   150955559. INTEGRALS IN   2383 RECORDS. CPU TIME:     1.59 SEC, REAL TIME:     1.87 SEC

 FILE SIZES:   FILE 1:   656.4 MBYTE,  FILE 4:  1229.0 MBYTE,   TOTAL:   1885.3 MBYTE

 OPERATOR DM      FOR CENTER  0  COORDINATES:    0.000000    0.000000    0.000000


 **********************************************************************************************************************************
 DATASETS  * FILE   NREC   LENGTH (MB)   RECORD NAMES
              1      20      512.28       500      700      610      701      900      950      970     1000      129      960   
                                          VAR     GEOM    BASINP    GEOM    SYMINP    ZMAT    AOBASIS   BASIS     P2S    ABASIS    
                                         1100     1400     1410     1200     1210     1080     1600     1650     1300     1700   
                                           S        T        V       H0       H01     AOSYM     SMH    MOLCAS    ERIS     OPER   

              2       8       18.31       500      610      700     1000      520     2100     2140      701   
                                          VAR    BASINP    GEOM     BASIS   MCVARS     RHF     MCSCF    GEOM   

 PROGRAMS   *        TOTAL       INT        CI     MULTI       INT        CI     MULTI       INT   RESTART
 CPU TIMES  *       246.19     39.57     60.41      4.14     39.77     60.07      2.58     39.54      0.01
 REAL TIME  *       255.54 SEC
 DISK USED  *         1.77 GB
 **********************************************************************************************************************************

 PROGRAM * MULTI (Direct Multiconfiguration SCF)       Authors: P.J. Knowles, H.-J. Werner (1984)
                                                                D.A. Kreplin, P.J. Knowles, H.-J. Werner (2019)

 Number of closed-shell orbitals:  10 (   6   2   2   0 )
 Number of active  orbitals:        8 (   4   2   2   0 )
 Number of external orbitals:     244 (  86  60  60  38 )

 State symmetry 1

 Number of active electrons:  10    Spin symmetry=Triplet   Space symmetry=4
 Number of states:             3
 Number of CSFs:             384   (504 determinants, 1960 intermediate states)

 Molecular orbitals read from record     2140.2  Type=MCSCF/NATURAL (state averaged)

 EXTRA SYMMETRY OF MOS IN SYMMETRY 1:   1 1 1 1 1 1 1 1 1 1   1 1 1 2 1 1 1 2 1 2   1 1 2 1 1 1 2 2 1 3   1 2 1 2 1 2 1 3 1 1
                                        2 2 1 1 2 1 2 1 3 3   1 2 1 1 2 2 1 1 2 3   3 1 2 1 2 1 1 2 1 2   1 3 3 2 1 1 2 1 1 2
                                        1 3 2 1 3 2 2 1 1 1   2 1 1 1 1 1
 EXTRA SYMMETRY OF MOS IN SYMMETRY 2:   1 1 1 1 1 1 1 1 2 1   1 1 1 2 1 1 2 2 1 1   1 1 2 2 1 1 1 2 1 3   2 1 1 2 1 2 1 3 2 1
                                        1 2 1 2 1 1 1 1 2 3   2 1 1 2 1 2 3 2 1 1   1 1 1 1
 EXTRA SYMMETRY OF MOS IN SYMMETRY 3:   1 1 1 1 1 1 1 1 2 1   1 1 1 2 1 1 2 2 1 1   1 1 2 2 1 1 1 2 1 3   2 1 1 2 1 2 1 3 2 1
                                        1 2 1 2 1 1 1 1 2 3   2 1 1 2 1 2 3 2 1 1   1 1 1 1
 EXTRA SYMMETRY OF MOS IN SYMMETRY 4:   1 1 1 1 1 1 2 1 1 1   2 1 1 1 1 2 2 1 1 1   1 2 2 1 1 1 1 2 2 1   1 1 2 1 2 1 1 1

 Wavefunction dump at record             2140.2

 Convergence thresholds  0.10E-04 (gradient)  0.10E-05 (energy)

 Weight factors for state symmetry  1:    0.33333   0.33333   0.33333
 
 Number of orbital rotations:  1372  ( 32 closed/active, 756 closed/virtual, 0 active/active, 584 active/virtual )
 Total number of variables:    2884
 
  Second-order MCSCF: L-BFGS accelerated
 
 ITER  MIC  NCI  NEG     ENERGY(VAR)    ENERGY(PROJ) ENERGY CHANGE       GRAD(0)  GRAD(ORB)   GRAD(CI)      STEP      TIME
   1   11   19    0   -686.40415668    -686.40416556   -0.00000888    0.00392899 0.00001126 0.00001081  0.11E-01      1.59
   2   15   20    0   -686.40416556    -686.40416556   -0.00000000    0.00000601 0.00000001 0.00000009  0.18E-03      3.24

 CONVERGENCE REACHED!  Final gradient:    0.00000003 ( 0.33E-07)
                       Final energy:   -686.40416556
 
 Results for state 1.4
 =====================
 !MCSCF STATE 1.4 Energy                      -686.453033765135
 Nuclear energy                                 53.39445732
 Kinetic energy                                686.54626392
 One electron energy                         -1057.02100667
 Two electron energy                           317.17351559
 Virial ratio                                    1.99986420
 
 !MCSCF STATE 1.4 Dipole moment                  0.00000000     0.00000000    -0.24908284
 Dipole moment /Debye                            0.00000000     0.00000000    -0.63310543
 
 Results for state 2.4
 =====================
 !MCSCF STATE 2.4 Energy                      -686.447303401938
 Nuclear energy                                 53.39445732
 Kinetic energy                                686.54977192
 One electron energy                         -1057.03295301
 Two electron energy                           317.19119229
 Virial ratio                                    1.99985075
 
 !MCSCF STATE 2.4 Dipole moment                  0.00000000     0.00000000    -0.29318096
 Dipole moment /Debye                            0.00000000     0.00000000    -0.74519166
 
 Results for state 3.4
 =====================
 !MCSCF STATE 3.4 Energy                      -686.312159515835
 Nuclear energy                                 53.39445732
 Kinetic energy                                686.14779151
 One electron energy                         -1055.84175399
 Two electron energy                           316.13513716
 Virial ratio                                    2.00023955
 
 !MCSCF STATE 3.4 Dipole moment                  0.00000000     0.00000000    -0.75399277
 Dipole moment /Debye                            0.00000000     0.00000000    -1.91645846
 
 State-averaged charge density matrix saved on record 2140.2 (density set 1)
 
 Expectation values: (only non-zero values are shown)
 
 !MCSCF expec                       <1.4|DMZ|1.4>    -0.249082839011 au =    -0.633105427589 Debye
 !MCSCF expec                       <2.4|DMZ|2.4>    -0.293180955308 au =    -0.745191659161 Debye
 !MCSCF expec                       <3.4|DMZ|3.4>    -0.753992768777 au =    -1.916458460852 Debye
 
 
 Natural orbital dump (state averaged) at molpro section 2140.2 (Orbital set 2)
 
 Reoptimze the CI vectors with natural orbitals 
 
 CI Coefficients of symmetry 4
 =============================
 
 2200 2a 2a     -0.00000000      0.02944591      0.90358141
 2220 a0 2a     -0.69170673      0.68942750     -0.02454763
 2220 2a a0      0.69170673      0.68942750     -0.02454763
 2020 2a 2a     -0.00000000      0.02817765     -0.22401757
 2ba0 2a 2a     -0.00000000      0.02085672     -0.18095358
 2aa0 2a 2b      0.00920628      0.01029446      0.15975662
 2aa0 2b 2a     -0.00920628      0.01029446      0.15975662
 2ab0 2a 2a      0.00000000     -0.04144563     -0.13855966
 2200 2a a2     -0.05892723     -0.06022119      0.00492114
 2200 a2 2a      0.05892723     -0.06022119      0.00492114
 2220 2a 0a      0.00154466     -0.01598275     -0.05494531
 2220 0a 2a     -0.00154466     -0.01598275     -0.05494531
 2020 2a a2     -0.05199544     -0.05488915     -0.00054555
 2020 a2 2a      0.05199544     -0.05488915     -0.00054555
 baab 2a 2a     -0.00000000      0.00120906      0.05337025
 2ab0 2a a2      0.05134718      0.05302316      0.03888313
 2ab0 a2 2a     -0.05134718      0.05302316      0.03888313
 
 Energy:      -686.45303377   -686.44730340   -686.31215952
 


 **********************************************************************************************************************************
[...]
    1     2     2     1.00000000     0.00000000  -684.45137691     0.00000000    -0.26709976  0.65D-01  0.60D-01     0.51
    2     1     1     1.09823088    -0.24445265  -684.84254196    -0.24445265    -0.00844940  0.27D-02  0.15D-02     7.99
    2     2     2     1.11223902    -0.25266572  -684.70404263    -0.25266572    -0.00842230  0.24D-02  0.15D-02     7.99
    3     1     1     1.10393788    -0.25314646  -684.85123577    -0.00869381    -0.00069151  0.18D-03  0.13D-03    15.52
    3     2     2     1.12110842    -0.26233979  -684.71371671    -0.00967407    -0.00073719  0.29D-03  0.15D-03    15.52
    4     1     1     1.10736526    -0.25391280  -684.85200211    -0.00076634    -0.00007753  0.28D-04  0.12D-04    23.00
    4     2     2     1.12906742    -0.26335834  -684.71473525    -0.00101854    -0.00014045  0.11D-03  0.25D-04    23.00
    5     1     1     1.10840220    -0.25400495  -684.85209426    -0.00009215    -0.00001160  0.52D-05  0.13D-05    30.48
    5     2     2     1.13441465    -0.26360737  -684.71498428    -0.00024903    -0.00007789  0.92D-04  0.11D-04    30.48
    6     1     1     1.10857004    -0.25401906  -684.85210837    -0.00001411    -0.00000192  0.70D-06  0.29D-06    37.96
    6     2     2     1.14079358    -0.26378534  -684.71516225    -0.00017797    -0.00009712  0.72D-04  0.13D-04    37.96
    7     1     1     1.10864711    -0.25402133  -684.85211064    -0.00000227    -0.00000040  0.24D-06  0.39D-07    45.39
    7     2     2     1.14719844    -0.26394652  -684.71532344    -0.00016119    -0.00007575  0.60D-04  0.90D-05    45.39
    8     1     1     1.10869271    -0.25402178  -684.85211108    -0.00000045    -0.00000009  0.42D-07  0.77D-08    52.93
    8     2     2     1.15145236    -0.26405036  -684.71542727    -0.00010384    -0.00004635  0.56D-04  0.48D-05    52.93
    9     1     1     1.10871047    -0.25402187  -684.85211118    -0.00000010    -0.00000002  0.78D-08  0.22D-08    60.37
    9     2     2     1.15733629    -0.26413438  -684.71551129    -0.00008402    -0.00005270  0.40D-04  0.69D-05    60.37
   10     1     1     1.10871730    -0.25402190  -684.85211120    -0.00000002    -0.00000000  0.27D-08  0.36D-09    67.82
   10     2     2     1.16367641    -0.26421609  -684.71559300    -0.00008171    -0.00004529  0.38D-04  0.53D-05    67.82
   11     1     1     1.10871730    -0.25402190  -684.85211120    -0.00000000    -0.00000000  0.27D-08  0.36D-09    73.02
   11     2     2     1.22593656    -0.26449535  -684.71587226    -0.00027926    -0.00009324  0.21D-04  0.15D-04    73.02
   12     1     1     1.10871730    -0.25402190  -684.85211120     0.00000000    -0.00000000  0.27D-08  0.36D-09    78.20
   12     2     2     1.22757652    -0.26457454  -684.71595145    -0.00007919    -0.00000717  0.47D-05  0.12D-05    78.20
   13     1     1     1.10871730    -0.25402190  -684.85211120    -0.00000000    -0.00000000  0.27D-08  0.36D-09    83.45
   13     2     2     1.23255885    -0.26458587  -684.71596278    -0.00001133    -0.00000419  0.26D-05  0.57D-06    83.45
   14     1     1     1.10871730    -0.25402190  -684.85211120     0.00000000    -0.00000000  0.27D-08  0.36D-09    88.63
   14     2     2     1.23518380    -0.26459129  -684.71596820    -0.00000542    -0.00000243  0.17D-05  0.37D-06    88.63
   15     1     1     1.10871730    -0.25402190  -684.85211120     0.00000000    -0.00000000  0.27D-08  0.36D-09    93.79
   15     2     2     1.23770252    -0.26459495  -684.71597186    -0.00000366    -0.00000194  0.16D-05  0.23D-06    93.79
   16     1     1     1.10871730    -0.25402190  -684.85211120     0.00000000    -0.00000000  0.27D-08  0.36D-09    99.01
   16     2     2     1.25382941    -0.26460572  -684.71598264    -0.00001078    -0.00000410  0.11D-05  0.64D-06    99.01
   17     1     1     1.10871730    -0.25402190  -684.85211120    -0.00000000    -0.00000000  0.27D-08  0.36D-09   104.22
   17     2     2     1.25480779    -0.26460950  -684.71598641    -0.00000378    -0.00000061  0.40D-06  0.93D-07   104.22
   18     1     1     1.10871730    -0.25402190  -684.85211120    -0.00000000    -0.00000000  0.27D-08  0.36D-09   109.43
   18     2     2     1.25639579    -0.26461047  -684.71598738    -0.00000097    -0.00000036  0.20D-06  0.45D-07   109.43
   19     1     1     1.10871730    -0.25402190  -684.85211120    -0.00000000    -0.00000000  0.27D-08  0.36D-09   114.69
   19     2     2     1.25709183    -0.26461090  -684.71598782    -0.00000043    -0.00000018  0.11D-06  0.29D-07   114.69
   20     1     1     1.10871730    -0.25402190  -684.85211120    -0.00000000    -0.00000000  0.27D-08  0.36D-09   119.94
   20     2     2     1.25770289    -0.26461115  -684.71598806    -0.00000025    -0.00000011  0.94D-07  0.16D-07   119.94
   21     1     1     1.10871730    -0.25402190  -684.85211120     0.00000000    -0.00000000  0.27D-08  0.36D-09   125.26
   21     2     2     1.26006457    -0.26461158  -684.71598849    -0.00000043    -0.00000022  0.84D-07  0.40D-07   125.26
   22     1     1     1.10871730    -0.25402190  -684.85211120    -0.00000000    -0.00000000  0.27D-08  0.36D-09   130.55
   22     2     2     1.26070546    -0.26461183  -684.71598874    -0.00000025    -0.00000009  0.62D-07  0.15D-07   130.55
   23     1     1     1.10871730    -0.25402190  -684.85211120    -0.00000000    -0.00000000  0.27D-08  0.36D-09   135.83
   23     2     2     1.26158267    -0.26461198  -684.71598890    -0.00000015    -0.00000007  0.31D-07  0.11D-07   135.83
   24     1     1     1.10871730    -0.25402190  -684.85211120    -0.00000000    -0.00000000  0.27D-08  0.36D-09   141.07
   24     2     2     1.26192931    -0.26461206  -684.71598898    -0.00000008    -0.00000003  0.17D-07  0.56D-08   141.07
   25     1     1     1.10871730    -0.25402190  -684.85211120    -0.00000000    -0.00000000  0.27D-08  0.36D-09   146.34
   25     2     2     1.26218706    -0.26461210  -684.71598901    -0.00000004    -0.00000001  0.13D-07  0.22D-08   146.34
   26     1     1     1.10871730    -0.25402190  -684.85211120    -0.00000000    -0.00000000  0.27D-08  0.36D-09   151.58
   26     2     2     1.26278472    -0.26461214  -684.71598906    -0.00000004    -0.00000003  0.11D-07  0.45D-08   151.58
   27     1     1     1.10871730    -0.25402190  -684.85211120    -0.00000000    -0.00000000  0.27D-08  0.36D-09   156.81
   27     2     2     1.26308892    -0.26461218  -684.71598909    -0.00000003    -0.00000002  0.93D-08  0.26D-08   156.81
   28     1     1     1.10871730    -0.25402190  -684.85211120    -0.00000000    -0.00000000  0.27D-08  0.36D-09   162.12
   28     2     2     1.26348738    -0.26461221  -684.71598912    -0.00000003    -0.00000001  0.52D-08  0.22D-08   162.12


 =====================================
 Analysis of CPU times by interactions
 =====================================

       I      S      P

 I   0.1%
 S   0.2%   2.7%
 P   0.6%  13.6%  42.9%

 Initialization:   0.3%
 Other:           39.6%

 Total CPU:      162.1 seconds
 =====================================



 gnormi=  0.90194318  gnorms=  0.03721291  gnormp=  0.06084392  gnorm=  1.00000000
 ecorri= -0.22911331  ecorrs= -0.00945356  ecorrp= -0.01545502  ecorr= -0.25402190

 gnormi=  0.79146022  gnorms=  0.15003035  gnormp=  0.05850943  gnorm=  1.00000000
 ecorri= -0.20943004  ecorrs= -0.03970214  ecorrp= -0.01548003  ecorr= -0.26461221

 Reference coefficients greater than 0.0500000
 =============================================
 22002/2/           0.9080820   0.0000000
 22202//0           0.0249266  -0.6092212
 2220/02/           0.0249267   0.6092211
 2//02\2/           0.1637195   0.1064164
 20202/2/          -0.1563787   0.0000000
 2//02/2\           0.1157671  -0.1504955
 22002//2          -0.0177066   0.0532215
 2200/22/          -0.0177066  -0.0532214

 Coefficients of singly external configurations greater than 0.0500000
 =====================================================================

 22/02020   1.4    -0.0000003   0.2599211
 22/02020   2.4     0.0000001   0.1420361
 22/02020   3.4     0.0000001  -0.0972064

 Coefficients of fixed reference functions:
 ==========================================

 State      Coefficients
 1           0.947901    0.000000
 2           0.000000    0.889371

 Coefficients of rotated reference functions:
 ============================================

 State      Coefficients
 1           0.947901    0.000000
 2           0.000000    0.889371


 RESULTS FOR STATE 1.4
 =====================

 Coefficient of reference function:   C(0) = 0.94790143 (fixed)   0.94970689 (relaxed)   0.94790143 (rotated)

 Energy contributions of configuration classes

 CLASS          SQ.NORM        ECORR1        ECORR2
 +++++++++++++++++++++++++++++++++++++++++++++++++++
 Internals    0.00381301   -0.00000000   -0.16967034
 Singles      0.04141591   -0.06615672   -0.06889650
 Pairs        0.06771592   -0.00000004   -0.01545506
 Total        1.11294485   -0.06615676   -0.25402190
 +++++++++++++++++++++++++++++++++++++++++++++++++++


 Reference energy                    -684.59808931
 Nuclear energy                       107.75972295
 Kinetic energy                       691.85235830
 One electron energy                -1157.59191045
 Two electron energy                  364.98007630
 Virial quotient                       -0.98988188
 Correlation energy                    -0.25402190
 !MRCI STATE 1.4 Energy              -684.852111204796

 Properties without orbital relaxation:

 !MRCI STATE 1.4 Dipole moment          0.00000000     0.00000000     0.90364367
 Dipole moment /Debye                   0.00000000     0.00000000     2.29683311

 Cluster corrected energies          -684.88080167 (Davidson, fixed reference)
 Cluster corrected energies          -684.87972778 (Davidson, relaxed reference)
 Cluster corrected energies          -684.88080167 (Davidson, rotated reference)

 Cluster corrected energies          -684.87485600 (Pople, fixed reference)
 Cluster corrected energies          -684.87396024 (Pople, relaxed reference)
 Cluster corrected energies          -684.87485600 (Pople, rotated reference)



 RESULTS FOR STATE 2.4
 =====================

 Coefficient of reference function:   C(0) = 0.88937062 (fixed)   0.88964050 (relaxed)   0.88937062 (rotated)

 Energy contributions of configuration classes

 CLASS          SQ.NORM        ECORR1        ECORR2
 +++++++++++++++++++++++++++++++++++++++++++++++++++
 Internals    0.00060699    0.00000000   -0.00012704
 Singles      0.18967651   -0.08320015   -0.10551180
 Pairs        0.07397080   -0.18141206   -0.15897336
 Total        1.26425430   -0.26461221   -0.26461221
 +++++++++++++++++++++++++++++++++++++++++++++++++++


 Reference energy                    -684.45137691
 Nuclear energy                       107.75972295
 Kinetic energy                       692.69799245
 One electron energy                -1157.28867381
 Two electron energy                  364.81296174
 Virial quotient                       -0.98847694
 Correlation energy                    -0.26461221
 !MRCI STATE 2.4 Energy              -684.715989119120

 Properties without orbital relaxation:

 !MRCI STATE 2.4 Dipole moment          0.00000000     0.00000000     1.26796636
 Dipole moment /Debye                   0.00000000     0.00000000     3.22284901

 Cluster corrected energies          -684.78591403 (Davidson, fixed reference)
 Cluster corrected energies          -684.78571110 (Davidson, relaxed reference)
 Cluster corrected energies          -684.78591403 (Davidson, rotated reference)

 Cluster corrected energies          -684.77540153 (Pople, fixed reference)
 Cluster corrected energies          -684.77520947 (Pople, relaxed reference)
 Cluster corrected energies          -684.77540153 (Pople, rotated reference)


 !MRCI trans          <2.4|DMZ|1.4>     0.000001026348 au =     0.000002608717 Debye


 **********************************************************************************************************************************
 DATASETS  * FILE   NREC   LENGTH (MB)   RECORD NAMES
              1      21      604.43       500      700      610      701      900      950      970     1000      129      960   
                                          VAR     GEOM    BASINP    GEOM    SYMINP    ZMAT    AOBASIS   BASIS     P2S    ABASIS    
                                         1100     1400     1410     1200     1210     1080     1600     1650     1300     1700   
                                           S        T        V       H0       H01     AOSYM     SMH    MOLCAS    ERIS     OPER   
                                         1380   
                                         JKOP   

              2       8       18.31       500      610      700     1000      520     2100     2140      701   
                                          VAR    BASINP    GEOM     BASIS   MCVARS     RHF     MCSCF    GEOM   

 PROGRAMS   *        TOTAL        CI     MULTI       INT        CI     MULTI       INT        CI     MULTI       INT        CI
 CPU TIMES  *     16861.25    162.37      5.72     39.60    139.90      5.78     40.44    129.41      5.97     40.60    115.48
 REAL TIME  *     17560.41 SEC
 DISK USED  *         1.83 GB
 **********************************************************************************************************************************
 SETTING E1(146)        =      -684.85211120  AU                              
 SETTING E2(146)        =      -684.71598912  AU                              


      R          E1             E2
    2.240   -686.6891890   -686.6815975
    2.230   -686.6893849   -686.6817159
    2.220   -686.6895419   -686.6817950
    2.210   -686.6896581   -686.6818330
    2.200   -686.6897317   -686.6818282
    2.190   -686.6897610   -686.6817787
    2.180   -686.6897438   -686.6816825
    2.170   -686.6896782   -686.6815376
    2.160   -686.6895621   -686.6813420
    2.150   -686.6893932   -686.6810933
    2.140   -686.6891692   -686.6807894
    2.130   -686.6888877   -686.6804279
    2.120   -686.6885463   -686.6800063
    2.112   -686.6882282   -686.6796241
    2.100   -686.6876731   -686.6789727
    2.090   -686.6871360   -686.6783553
    2.080   -686.6865279   -686.6776671
    2.070   -686.6858459   -686.6769050
    2.060   -686.6850868   -686.6760661
    2.050   -686.6842475   -686.6751470
    2.040   -686.6833245   -686.6741446
    2.030   -686.6823144   -686.6730553
    2.020   -686.6812134   -686.6718755
    2.010   -686.6800180   -686.6706015
    2.000   -686.6787240   -686.6692296
    1.990   -686.6773274   -686.6677555
    1.980   -686.6758240   -686.6661752
    1.970   -686.6742095   -686.6644843
    1.960   -686.6724791   -686.6626783
    1.957   -686.6719368   -686.6621134
    1.950   -686.6706283   -686.6607526
    1.940   -686.6686520   -686.6587022
    1.930   -686.6665452   -686.6565220
    1.920   -686.6643025   -686.6542069
    1.910   -686.6619184   -686.6517514
    1.900   -686.6593872   -686.6491498
    1.890   -686.6567029   -686.6463961
    1.880   -686.6538593   -686.6434844
    1.870   -686.6508500   -686.6404081
    1.860   -686.6476683   -686.6371608
    1.850   -686.6443072   -686.6337355
    1.840   -686.6407597   -686.6301250
    1.830   -686.6370181   -686.6263220
    1.820   -686.6330747   -686.6223188
    1.810   -686.6289214   -686.6181073
    1.800   -686.6245499   -686.6136793
    1.790   -686.6199514   -686.6090261
    1.780   -686.6151168   -686.6041387
    1.770   -686.6100369   -686.5990078
    1.760   -686.6047017   -686.5936237
    1.750   -686.5991012   -686.5879764
    1.740   -686.5932249   -686.5820554
    1.730   -686.5870618   -686.5758498
    1.720   -686.5806005   -686.5693485
    1.710   -686.5738294   -686.5625397
    1.700   -686.5667361   -686.5554113
    1.690   -686.5593081   -686.5479507
    1.680   -686.5515320   -686.5401448
    1.670   -686.5433943   -686.5319801
    1.660   -686.5348807   -686.5234424
    1.650   -686.5259765   -686.5145173
    1.640   -686.5166665   -686.5051894
    1.630   -686.5069349   -686.4954432
    1.620   -686.4967651   -686.4852624
    1.610   -686.4861402   -686.4746300
    1.600   -686.4750425   -686.4635286
    1.590   -686.4634537   -686.4519401
    1.580   -686.4513549   -686.4398457
    1.570   -686.4387263   -686.4272260
    1.560   -686.4255477   -686.4140609
    1.550   -686.4117980   -686.4003297
    1.540   -686.3974553   -686.3860108
    1.530   -686.3824971   -686.3710822
    1.520   -686.3668999   -686.3555208
    1.510   -686.3506398   -686.3393032
    1.500   -686.3336916   -686.3224049
    1.490   -686.3160296   -686.3048010
    1.480   -686.2976271   -686.2864658
    1.470   -686.2784567   -686.2673730
    1.460   -686.2584899   -686.2474957
    1.450   -686.2376975   -686.2268064
    1.440   -686.2160492   -686.2052774
    1.430   -686.1935142   -686.1828807
    1.420   -686.1700604   -686.1595884
    1.410   -686.1456548   -686.1353733
    1.400   -686.1202639   -686.1102091
    1.395   -686.1071881   -686.0972635
    1.390   -686.0938529   -686.0840719
    1.385   -686.0802539   -686.0706320
    1.380   -686.0663865   -686.0569417
    1.375   -686.0522461   -686.0429997
    1.370   -686.0378282   -686.0288050
    1.365   -686.0231281   -686.0143577
    1.360   -686.0081411   -685.9996590
    1.355   -685.9928626   -685.9847112
    1.350   -685.9772878   -685.9695183
    1.345   -685.9614119   -685.9540860
    1.340   -685.9452301   -685.9384221
    1.335   -685.9287378   -685.9225365
    1.330   -685.9119301   -685.9064406
    1.325   -685.8948023   -685.8901469
    1.320   -685.8773496   -685.8736675
    1.315   -685.8595673   -685.8570127
    1.310   -685.8414506   -685.8401889
    1.305   -685.8231977   -685.8229946
    1.300   -685.8060346   -685.8041943
    1.295   -685.7886903   -685.7850448
    1.290   -685.7711511   -685.7655411
    1.285   -685.7534008   -685.7456778
    1.280   -685.7354221   -685.7254499
    1.275   -685.7171980   -685.7048522
    1.270   -685.6987123   -685.6838796
    1.265   -685.6799500   -685.6625268
    1.260   -685.6608978   -685.6407889
    1.255   -685.6415437   -685.6186608
    1.250   -685.6218768   -685.5961374
    1.245   -685.6018875   -685.5732138
    1.240   -685.5815668   -685.5498851
    1.235   -685.5609068   -685.5261465
    1.230   -685.5398998   -685.5019932
    1.225   -685.5185390   -685.4774204
    1.220   -685.4968176   -685.4524237
    1.215   -685.4747294   -685.4269984
    1.210   -685.4522682   -685.4011400
    1.205   -685.4294281   -685.3748443
    1.200   -685.4062033   -685.3481069
    1.195   -685.3825881   -685.3209237
    1.190   -685.3585771   -685.2932906
    1.185   -685.3341645   -685.2652039
    1.180   -685.3093448   -685.2366595
    1.175   -685.2841125   -685.2076540
    1.170   -685.2584620   -685.1781837
    1.165   -685.2323877   -685.1482453
    1.160   -685.2058840   -685.1178358
    1.155   -685.1789449   -685.0869521
    1.150   -685.1515647   -685.0555916
    1.145   -685.1237374   -685.0237521
    1.140   -685.0954569   -684.9914318
    1.135   -685.0667170   -684.9586297
    1.130   -685.0375111   -684.9253456
    1.125   -685.0078327   -684.8915814
    1.120   -684.9776752   -684.8573414
    1.115   -684.9470315   -684.8226345
    1.110   -684.9158945   -684.7874784
    1.105   -684.8842569   -684.7519071
    1.100   -684.8521112   -684.7159891
                                                  

 CI/aug-cc-pV5Z energy=   -684.715989119120

              CI           MULTI              CI           MULTI              CI           MULTI              CI           MULTI
   -684.71598912   -684.44125618   -684.75190712   -684.47769159   -684.78747835   -684.51361466   -684.82263448   -684.54902922
 **********************************************************************************************************************************
 Molpro calculation terminated
