
 Working directory              : /tmp/molpro/molpro.c50EHFNDYn/
 Global scratch directory       : /tmp/molpro/molpro.c50EHFNDYn/
 Wavefunction directory         : /home/molpro/wfu/
 Main file repository           : /tmp/molpro/molpro.c50EHFNDYn/

 id        : gskim

 Nodes                nprocs
 localhost.localdomain    1
 GA implementation: MPI file
 GA implementation (serial work in mppx): MPI file

 Using customized tuning parameters: mindgm=1; mindgv=20; mindgc=4; mindgr=1; noblas=0; minvec=7
 default implementation of scratch files=df  


 Variables initialized (1009), CPU time= 0.00 sec
 ***,EAM Calculations  for SiS  from 1sig+ to 1sig-
 file,2,sis-sp-1sigm-1sigp-lz.wfu
 memory,1000,M
 gexpec,Lx,Ly,Lz
 geometry={angstrom;
 Si
 S,Si,r(i)}
 basis=av5z
 r=[1.5]
 do i=1,#r
 int;
 
 Text,EAM calculation of SiS 1sigp to 1sig-  using  av5z
 
 {multi;occ,10,4,4;close,6,2,2;start,2140.2;orbital,2140.2;natorb,,ci;wf,30,1,0;state,4;wf,30,4,0;state,3;maxiter,40;}
 
 {ci;occ,10,4,4;core,6,2,2;wf,30,1,0;state,3;orbital,2140.2;maxiter,250;option,maxiti=250;option,nstati=4;save,8310.2;}
 
 {ci;occ,10,4,4;core,6,2,2;wf,30,4,0;state,2;orbital,2140.2;maxiter,250;option,maxiti=250;option,nstati=3;save,7310.2;}
 
 {ci;trans,7310.2,8310.2;}
 
 enddo
 
 Commands initialized (810), CPU time= 0.01 sec, 661 directives.
 Default parameters read. Elapsed time= 0.05 sec

 Checking input...
 Passed
1


                                         ***  PROGRAM SYSTEM MOLPRO  ***
                                       Copyright, TTI GmbH Stuttgart, 2015
                                    Version 2021.2 linked Jul 16 2021 07:37:36


 **********************************************************************************************************************************
 LABEL *   EAM Calculations  for SiS  from 1sig+ to 1sig-                                
  64 bit serial version                                                                  DATE: 21-Oct-24          TIME: 16:16:24  
 **********************************************************************************************************************************

 SHA1:             dade016a989826d9d859d6207854b99675d53db3
 **********************************************************************************************************************************

 Memory per process:      1000 MW
 Total memory per node:   1000 MW

 GA preallocation disabled
 GA check disabled

 Variable memory set to 1000.0 MW



 Permanent file  2  sis-sp-1sigm-1sigp-lz.wfu        assigned.  Implementation=df    Size= 17.56 MB


 PROGRAM * RESTART 


 Reading variables from file 2

 _FNUC           =      0.00000000
 _BASIS          =    AV5Z
 _NELEC          =     30.00000000
 _PROGRAM        =    CI
 _DMX(2:3)       =      0.00000000     0.00000000
 _DMY(2:3)       =      0.00000000     0.00000000
 _DMZ(1:3)       =     -0.02495284    -1.74858185     1.00500913
 _DMX_SCF        =      0.00000000
 _DMY_SCF        =      0.00000000
 _DMZ_SCF        =      0.00913169
 _HOMO           =      9.10000000
 _EHOMO          =     -0.36177766
 _LUMO           =     10.10000000
 _ELUMO          =      0.03375101
 _ENERGD(1:3)    =   -686.61576579  -686.35797930  -686.34998942
 _ENERGD0(1:3)   =   -686.61576579  -686.35797930  -686.34998942
 _ENERGD1(1:3)   =   -686.61609115  -686.35875631  -686.35029574
 _ENERGD2(1:3)   =   -686.61609115  -686.35875631  -686.35029574
 _ENERGD3(1:3)   =   -686.61576579  -686.35797930  -686.34998942
 _ENERGD4(1:3)   =   -686.61609115  -686.35875631  -686.35029574
 _ENERGP(1:3)    =   -686.61150738  -686.35383795  -686.34546082
 _ENERGP0(1:3)   =   -686.61150738  -686.35383795  -686.34546082
 _ENERGP1(1:3)   =   -686.61180451  -686.35455155  -686.34574535
 _ENERGP2(1:3)   =   -686.61180451  -686.35455155  -686.34574535
 _ENERGP3(1:3)   =   -686.61150738  -686.35383795  -686.34546082
 _ENERGP4(1:3)   =   -686.61180451  -686.35455155  -686.34574535
 _ENERGR(1:3)    =   -686.32231776  -686.07721213  -686.05515169
 _ENERGRR(1:3)   =   -686.32219244  -686.07733745  -686.05515169
 _ENERGY(1:3)    =   -686.58631361  -686.32892868  -686.31692946
 _ENERGY_METHOD  =    CI
 _ENERGY_BASIS   =    aug-cc-pV5Z
 _ENERGY_AVRG    =   -686.10596440
 _ENUC           =     79.02379683
 _IPROC_MPP      =      0.00000000
 _IPROC_MPPX     =      0.00000000
 _ORBITAL        =   2140.20000000
 _ROOT(1:3)      =      1.00000000     2.00000000     3.00000000
 _STATUS         =      1.00000000
 _TROV           =      0.00000000
 _LASTORB        =    MCSCF
 _OUTPUT         =    /home/molpro/SiS-3oct2024/dir-3/sis150-1sigp3mc.out
 _PGROUP         =    C2v 
 _TIME           =    13:22:31
 _C0(1:3)        =      0.89967692     0.89648508     0.88787065
 _C0R(1:3)       =      0.89868093     0.89400984     0.88694917
 _DMX_CC(1:4)    =     -0.00000000    -0.00000000    -0.00000000    -0.00000000
 _DMY_CC(1:4)    =     -0.00000000    -0.00000000    -0.00000000    -0.00000000
 _DMZ_CC(1:4)    =      1.85967631     1.85967631     1.85967631     1.85967631
 _DMX_NUC(1:4)   =      0.00000000     0.00000000     0.00000000     0.00000000
 _DMY_NUC(1:4)   =      0.00000000     0.00000000     0.00000000     0.00000000
 _DMZ_NUC(1:4)   =      0.02488404     0.02488404     0.02488404     0.02488404
 _SYM_CATION     =      1.00000000
 R               =      1.50000000
 _TRDMX(1:3)     =     -0.00000000    -0.00000000     0.00000000
 _TRDMY(1:3)     =     -0.00000000    -0.00000000     0.00000000
 _TRDMZ(1:3)     =      0.26094593     0.00000293    -0.00000096

 Geometry written to block  1 of record 700


 **********************************************************************************************************************************
 DATASETS  * FILE   NREC   LENGTH (MB)   RECORD NAMES
              2       7       17.56       500      610      700     1000      520     2100     2140   
                                          VAR    BASINP    GEOM     BASIS   MCVARS     RHF     MCSCF   

 PROGRAMS   *        TOTAL   RESTART
 CPU TIMES  *         0.11      0.01
 REAL TIME  *         0.12 SEC
 DISK USED  *        29.03 MB
 **********************************************************************************************************************************
 namx(1:10)LX        
 namx(1:10)LY        
 namx(1:10)LZ        
 SETTING BASIS          =    AV5Z
 SETTING R              =         1.50000000                                  

 DO I                   =         1.00000000   


 Using spherical harmonics

 Library entry SI     S aug-cc-pV5Z          selected for orbital group  1
 Library entry SI     P aug-cc-pV5Z          selected for orbital group  1
 Library entry SI     D aug-cc-pV5Z          selected for orbital group  1
 Library entry SI     F aug-cc-pV5Z          selected for orbital group  1
 Library entry SI     G aug-cc-pV5Z          selected for orbital group  1
 Library entry SI     H aug-cc-pV5Z          selected for orbital group  1
 Library entry S      S aug-cc-pV5Z          selected for orbital group  2
 Library entry S      P aug-cc-pV5Z          selected for orbital group  2
 Library entry S      D aug-cc-pV5Z          selected for orbital group  2
 Library entry S      F aug-cc-pV5Z          selected for orbital group  2
 Library entry S      G aug-cc-pV5Z          selected for orbital group  2
 Library entry S      H aug-cc-pV5Z          selected for orbital group  2


 PROGRAM * SEWARD (Integral evaluation for generally contracted gaussian basis sets)     Author: Roland Lindh, 1990

 Geometry written to block  1 of record 701

 Orientation using atomic masses  
 Molecule type: Linear
 Symmetry elements: X,Y
 Rotational constants:      15.0034845     15.0034845      0.0000000 GHz  (calculated with average atomic masses)

 Point group  C2v 



 ATOMIC COORDINATES

 NR  ATOM    CHARGE       X              Y              Z

   1  SI     14.00    0.000000000    0.000000000   -1.510951432
   2  S      16.00    0.000000000    0.000000000    1.323637755

 Bond lengths in Bohr (Angstrom)

 1-2  2.834589187
     ( 1.500000000)

 NUCLEAR CHARGE:                   30
 NUMBER OF PRIMITIVE AOS:         434
 NUMBER OF SYMMETRY AOS:          324
 NUMBER OF CONTRACTIONS:          262   (   96A1  +   64B1  +   64B2  +   38A2  )
 NUMBER OF INNER CORE ORBITALS:     2   (    2A1  +    0B1  +    0B2  +    0A2  )
 NUMBER OF OUTER CORE ORBITALS:     8   (    4A1  +    2B1  +    2B2  +    0A2  )
 NUMBER OF VALENCE ORBITALS:        8   (    4A1  +    2B1  +    2B2  +    0A2  )


 NUCLEAR REPULSION ENERGY   79.02379683

 EXTRA SYMMETRY OF AOS IN SYMMETRY 1:   1 1 1 1 1 1 1 1 1 1   1 1 1 1 1 1 2 1 2 1   2 1 2 1 2 1 2 1 2 1   2 1 2 1 3 2 1 3 2 1
                                        3 2 2 3 1 2 3 1 1 1   1 1 1 1 1 1 1 1 1 1   1 1 1 1 2 1 2 1 2 1   2 1 2 1 2 1 2 1 2 1
                                        2 1 3 2 1 3 2 1 3 2   2 3 1 2 3 1
 EXTRA SYMMETRY OF AOS IN SYMMETRY 2:   1 1 1 1 1 1 1 1 1 1   1 1 1 2 1 2 1 2 1 2   1 2 1 2 1 2 1 2 3 1   2 3 1 1 1 1 1 1 1 1
                                        1 1 1 1 1 2 1 2 1 2   1 2 1 2 1 2 1 2 1 2   3 1 2 3
 EXTRA SYMMETRY OF AOS IN SYMMETRY 3:   1 1 1 1 1 1 1 1 1 1   1 1 1 2 1 2 1 2 1 2   1 2 1 2 1 2 1 2 3 1   2 3 1 1 1 1 1 1 1 1
                                        1 1 1 1 1 2 1 2 1 2   1 2 1 2 1 2 1 2 1 2   3 1 2 3
 EXTRA SYMMETRY OF AOS IN SYMMETRY 4:   1 1 1 1 1 1 1 1 1 1   2 1 2 1 2 2 1 2 1 1   1 1 1 1 1 1 1 1 1 2   1 2 1 2 2 1 2 1

 Eigenvalues of metric

         1 0.510E-05 0.628E-05 0.116E-04 0.167E-04 0.207E-04 0.868E-04 0.108E-03 0.297E-03
         2 0.790E-05 0.860E-05 0.116E-03 0.806E-03 0.998E-03 0.166E-02 0.501E-02 0.123E-01
         3 0.790E-05 0.860E-05 0.116E-03 0.806E-03 0.998E-03 0.166E-02 0.501E-02 0.123E-01
         4 0.598E-03 0.382E-02 0.140E-01 0.203E-01 0.459E-01 0.535E-01 0.617E-01 0.838E-01


 Contracted 2-electron integrals neglected if value below      1.0D-12
 AO integral compression algorithm  1   Integral accuracy      1.0D-12

     667.156 MB (compressed) written to integral file ( 46.0%)


 NUMBER OF SORTED TWO-ELECTRON INTEGRALS:  150955559.     BUFFER LENGTH:  32768
 NUMBER OF SEGMENTS:  10  SEGMENT LENGTH:   15998976      RECORD LENGTH: 524288

 Memory used in sort:      16.56 MW

 SORT1 READ   181316810. AND WROTE   100603426. INTEGRALS IN    293 RECORDS. CPU TIME:     2.07 SEC, REAL TIME:     2.58 SEC
0.38D-08  0.52D-08   130.21
   10     2     2     1.11889390    -0.25504503  -686.32778858    -0.00000008    -0.00000001  0.21D-08  0.98D-09   130.21
   10     3     3     1.12118615    -0.25936825  -686.31815049    -0.00000000    -0.00000001  0.36D-08  0.20D-08   130.21


 =====================================
 Analysis of CPU times by interactions
 =====================================

       I      S      P

 I   0.1%
 S   0.1%   1.5%
 P   0.5%   6.4%  54.8%

 Initialization:   0.4%
 Other:           36.4%

 Total CPU:      130.2 seconds
 =====================================



 gnormi=  0.89777142  gnorms=  0.03673906  gnormp=  0.06548952  gnorm=  1.00000000
 ecorri= -0.23951896  ecorrs= -0.00980010  ecorrp= -0.01747375  ecorr= -0.26679281

 gnormi=  0.89373979  gnorms=  0.04599492  gnormp=  0.06026529  gnorm=  1.00000000
 ecorri= -0.22794389  ecorrs= -0.01173162  ecorrp= -0.01536951  ecorr= -0.25504503

 gnormi=  0.89191255  gnorms=  0.04357713  gnormp=  0.06451031  gnorm=  1.00000000
 ecorri= -0.23133380  ecorrs= -0.01130140  ecorrp= -0.01673306  ecorr= -0.25936825

 Wavefunction saved on  8310.2

 Reference coefficients greater than 0.0500000
 =============================================
 22202020           0.9256443  -0.0289091   0.0000002
 22/\2020           0.0474808   0.8948532  -0.0000001
 2220/\20           0.0684188  -0.0744569  -0.6501034
 222020/\           0.0684188  -0.0744569   0.6501014
 22022020          -0.0139191   0.1370482  -0.0000000
 22/\20/\          -0.0090597   0.1203139  -0.0030479
 22/\/\20          -0.0090597   0.1203139   0.0030477
 22002022          -0.0743218  -0.0044453   0.0835970
 22002220          -0.0743218  -0.0044452  -0.0835970
 2/2\/\20          -0.0228832   0.0795648   0.0147435
 2/2\20/\          -0.0228832   0.0795648  -0.0147433
 2200/\22          -0.0099627   0.0044186   0.0690552
 220022/\          -0.0099627   0.0044186  -0.0690551
 2220/\/\          -0.0624397   0.0029743   0.0000001
 22200220          -0.0486624   0.0078332   0.0583426
 22202002          -0.0486623   0.0078333  -0.0583425
 2/\02022           0.0444805   0.0013035  -0.0554241
 2/\02220           0.0444805   0.0013035   0.0554241

 Coefficients of fixed reference functions:
 ==========================================

 State      Coefficients
 1           0.946645    0.020927   -0.000000
 2          -0.022767    0.943689   -0.000000
 3          -0.000000   -0.000000    0.944052

 Coefficients of rotated reference functions:
 ============================================

 State      Coefficients
 1           0.946876   -0.000954   -0.000000
 2          -0.000954    0.943963   -0.000000
 3          -0.000000   -0.000000    0.944052


 RESULTS FOR STATE 1.1
 =====================

 Coefficient of reference function:   C(0) = 0.94664517 (fixed)   0.94750800 (relaxed)   0.94687596 (rotated)

 Energy contributions of configuration classes

 CLASS          SQ.NORM        ECORR1        ECORR2
 +++++++++++++++++++++++++++++++++++++++++++++++++++
 Internals    0.00133545   -0.00000572   -0.18314734
 Singles      0.04097716   -0.06287447   -0.06617172
 Pairs        0.07304418   -0.00000001   -0.01747376
 Total        1.11535679   -0.06288020   -0.26679281
 +++++++++++++++++++++++++++++++++++++++++++++++++++


 Reference energy                    -686.31854808
 Nuclear energy                        79.02379683
 Kinetic energy                       688.88170845
 One electron energy                -1108.68684502
 Two electron energy                  343.07757597
 Virial quotient                       -0.99666672
 Correlation energy                    -0.26692414
 !MRCI STATE 1.1 Energy              -686.585472224457

 Properties without orbital relaxation:

 !MRCI STATE 1.1 Dipole moment          0.00000000     0.00000000    -0.03055204
 Dipole moment /Debye                   0.00000000     0.00000000    -0.07765553

 Cluster corrected energies          -686.61626374 (Davidson, fixed reference)
 Cluster corrected energies          -686.61586668 (Davidson, relaxed reference)
 Cluster corrected energies          -686.61626374 (Davidson, rotated reference)

 Cluster corrected energies          -686.61187246 (Pople, fixed reference)
 Cluster corrected energies          -686.61150881 (Pople, relaxed reference)
 Cluster corrected energies          -686.61187246 (Pople, rotated reference)







 RESULTS FOR STATE 2.1
 =====================

 Coefficient of reference function:   C(0) = 0.94368890 (fixed)   0.94537812 (relaxed)   0.94396302 (rotated)

 Energy contributions of configuration classes

 CLASS          SQ.NORM        ECORR1        ECORR2
 +++++++++++++++++++++++++++++++++++++++++++++++++++
 Internals    0.00300046   -0.00000575   -0.16461255
 Singles      0.05161785   -0.07107367   -0.07506297
 Pairs        0.06763279    0.00000000   -0.01536951
 Total        1.12225110   -0.07107942   -0.25504503
 +++++++++++++++++++++++++++++++++++++++++++++++++++


 Reference energy                    -686.07287488
 Nuclear energy                        79.02379683
 Kinetic energy                       688.24032300
 One electron energy                -1104.44553931
 Two electron energy                  339.09395390
 Virial quotient                       -0.99722112
 Correlation energy                    -0.25491370
 !MRCI STATE 2.1 Energy              -686.327788579448

 Properties without orbital relaxation:

 !MRCI STATE 2.1 Dipole moment          0.00000000     0.00000000    -1.62164473
 Dipole moment /Debye                   0.00000000     0.00000000    -4.12180977

 Cluster corrected energies          -686.35895206 (Davidson, fixed reference)
 Cluster corrected energies          -686.35809626 (Davidson, relaxed reference)
 Cluster corrected energies          -686.35895206 (Davidson, rotated reference)

 Cluster corrected energies          -686.35461830 (Pople, fixed reference)
 Cluster corrected energies          -686.35382911 (Pople, relaxed reference)
 Cluster corrected energies          -686.35461830 (Pople, rotated reference)







 RESULTS FOR STATE 3.1
 =====================

 Coefficient of reference function:   C(0) = 0.94405206 (fixed)   0.94441122 (relaxed)   0.94405206 (rotated)

 Energy contributions of configuration classes

 CLASS          SQ.NORM        ECORR1        ECORR2
 +++++++++++++++++++++++++++++++++++++++++++++++++++
 Internals    0.00076103    0.00000000   -0.00017592
 Singles      0.04889526   -0.06596669   -0.07009317
 Pairs        0.07238311   -0.19340157   -0.18909917
 Total        1.12203940   -0.25936825   -0.25936825
 +++++++++++++++++++++++++++++++++++++++++++++++++++


 Reference energy                    -686.05878224
 Nuclear energy                        79.02379683
 Kinetic energy                       688.92369039
 One electron energy                -1106.75102241
 Two electron energy                  341.40907509
 Virial quotient                       -0.99621796
 Correlation energy                    -0.25936825
 !MRCI STATE 3.1 Energy              -686.318150490762

 Properties without orbital relaxation:

 !MRCI STATE 3.1 Dipole moment          0.00000000     0.00000000     0.99643536
 Dipole moment /Debye                   0.00000000     0.00000000     2.53268606

 Cluster corrected energies          -686.34980364 (Davidson, fixed reference)
 Cluster corrected energies          -686.34958233 (Davidson, relaxed reference)
 Cluster corrected energies          -686.34980364 (Davidson, rotated reference)

 Cluster corrected energies          -686.34539833 (Pople, fixed reference)
 Cluster corrected energies          -686.34519400 (Pople, relaxed reference)
 Cluster corrected energies          -686.34539833 (Pople, rotated reference)






 !MRCI trans          <2.1|DMZ|1.1>     0.251656161609 au =     0.639646161227 Debye

 !MRCI trans          <3.1|DMZ|1.1>    -0.000003347258 au =    -0.000008507882 Debye

 !MRCI trans          <3.1|DMZ|2.1>     0.000001234510 au =     0.000003137812 Debye


 **********************************************************************************************************************************
 DATASETS  * FILE   NREC   LENGTH (MB)   RECORD NAMES
              1      21      585.24       500      700      610      701      900      950      970     1000      129      960   
                                          VAR     GEOM    BASINP    GEOM    SYMINP    ZMAT    AOBASIS   BASIS     P2S    ABASIS    
                                         1100     1400     1410     1200     1210     1080     1600     1650     1300     1700   
                                           S        T        V       H0       H01     AOSYM     SMH    MOLCAS    ERIS     OPER   
                                         1380   
                                         JKOP   

              2      10       56.04       500      610      700     1000      520     2100     2140      701     2140(1)  8310   
                                          VAR    BASINP    GEOM     BASIS   MCVARS     RHF     MCSCF    GEOM     MCSCF    MRCI   

 PROGRAMS   *        TOTAL        CI     MULTI       INT   RESTART
 CPU TIMES  *       174.20    130.82      7.15     36.11      0.01
 REAL TIME  *       180.76 SEC
 DISK USED  *         1.81 GB
 **********************************************************************************************************************************


 PROGRAM * CI (Multireference internally contracted CI)     Authors: H.-J. Werner, P.J. Knowles, 1987


 Convergence thresholds:  THRVAR = 1.00D-08  THRDEN = 1.00D-06

 Number of optimized states: 2  Roots:    1   2
 Number of reference states: 2  Roots:    1   2

 Program parameters:       NSTATE=  2    NSTATI=  3    NSTATR=  2    NCEPA = -1    NOKOP =  0    ITRDM =  0    ITRANS=  0
                           IDIP  =200    MAXIT =250    MAXITI=250    MAXDAV=  6    MAXVI =  9    NOSING=  0    NOPAIR=  0
                           MXSHRF=  6    IKCPS =  0    IOPTGM=  2    IOPTOR=  0    REFOPT=  1    IAVDEN=  0    IDELCG=  1
                           IREST =  0    NATORB=  0    IPUNRF=  0    ISEP  =  0    OLDDEN=  0    NSTPRI=  1    GPSFLI= -1
                           CLUSTE=  0    CLOSED=  1    ILSTYP=  0    ITRLS =  0    ICCSD =  0    LOCAL =  0    IBASO =  0
                           MP    =  0    ITEDIS=  2    INCDIS=  1    MAXDIS=  6    ITYDIS=  1    BRUECK=  0    IBRSTR=  3
                           INCBRK=  1    TRIPLE=  0    ICCTYP=  1    IHPPD =  0    ICCNEW=  0    I3EXT = -1    IDEB  =  0
                           IDLEIG=  1    IDFTYP=  1    IMP3  =  0    IPROCS=  0    NOINT =  0    NOREF =  1    IMP2G =  0
                           IHINT =  0    IFDIA =  0    ISPARO=  1    JKSYM =  0    CPHF  =  0    MP2D  = -1    DKINT =  0
                           NPKEX =  1    DRVK  =  1    HLSTRA=  1    WIGNER=  1    DIIS_C=  1    MAXIT_= 50    MATEL =  0
                           SPDEG =  1    MEMCPH=  0    DISM  =  1    KDCPMA=  5    IKDCP_=  0    IREDTH=  0    USECS =  0
                           IPROCC=  0    I3SAVE=  1    IKDCP =  1    USECI =  0    OLDPAI=  0    IPROCI=  0    KEEPCL=  1
                           DISCON=  0    SHIFTE=  0    DIISIN=  0    MOLCAS=  0    MEM_PT=  0    RECORD=  0    RS2C  =  0
                           KEXT  = -1    CIPT2 =  0    DECP0S=  0    I4EXT = -1    NATCOR=  0    RIMP2 =  0    DDCI  = -1
                           IPOLAR=  0

 Reference symmetry:                   4   Singlet 
 Number of electrons:                 30
 Maximum number of shells:             6
 Maximum number of spin couplings:    42

 Reference space:      160 conf      272 CSFs
 N elec internal:      784 conf     1176 CSFs
 N-1 el internal:     1012 conf     2348 CSFs
 N-2 el internal:      928 conf     3697 CSFs

 Number of electrons in valence space:                     10
 Maximum number of open shell orbitals in reference space:  6
 Maximum number of open shell orbitals in internal spaces: 10


 Number of core orbitals:          10 (   6   2   2   0 )
 Number of active  orbitals:        8 (   4   2   2   0 )
 Number of external orbitals:     244 (  86  60  60  38 )

 Molecular orbitals read from record     2140.2  Type=MCSCF/NATURAL (state averaged)

 Coulomb and exchange operators available. No transformation done.


 Number of p-space configurations:  15

 Reference wavefunction optimized for reference space (refopt=1)

 State     Reference Energy 
     1      -686.05878224
     2      -686.05545158
     3      -685.94386094

 Number of blocks in overlap matrix:     8   Smallest eigenvalue:  0.12D-02
 Number of N-2 electron functions:     128
 Number of N-1 electron functions:    2348

 Number of internal configurations:                  272
 Number of singly external configurations:        141976
 Number of doubly external configurations:        972960
 Total number of contracted configurations:      1115208
 Total number of uncontracted configurations:   27707036

 Diagonal Coupling coefficients finished.               Storage:  185115 words, CPU-Time:      0.04 seconds.
 Energy denominators for pairs finished in 1 passes.    Storage:  362457 words, CPU-time:      0.02 seconds.

  ITER. STATE  ROOT     SQ.NORM     CORR.ENERGY   TOTAL ENERGY   ENERGY CHANGE       DEN1      VAR(S)    VAR(P)      TIME
    1     1     1     1.00000000     0.00000000  -686.05878224     0.00000000    -0.26164676  0.53D-01  0.65D-01     0.13
    1     2     2     1.00000000     0.00000000  -686.05545158    -0.00000000    -0.26441703  0.56D-01  0.64D-01     0.13
    2     1     1     1.10843100    -0.25064718  -686.30942941    -0.25064718    -0.00661517  0.15D-02  0.14D-02     6.99
    2     2     2     1.11087669    -0.25370991  -686.30916149    -0.25370991    -0.00648164  0.14D-02  0.14D-02     6.99
    3     1     1     1.11528699    -0.25821078  -686.31699302    -0.00756361    -0.00046692  0.10D-03  0.11D-03    13.82
    3     2     2     1.11838165    -0.26118029  -686.31663188    -0.00747038    -0.00045950  0.10D-03  0.10D-03    13.82
  COORDINATES:    0.000000    0.000000    0.000000
 OPERATOR LOP     FOR CENTER  0  COORDINATES:    0.000000    0.000000    0.000000
 OPERATOR LOP     FOR CENTER  0  COORDINATES:    0.000000    0.000000    0.000000
 OPERATOR LOP     FOR CENTER  0  COORDINATES:    0.000000    0.000000    0.000000


 **********************************************************************************************************************************
 DATASETS  * FILE   NREC   LENGTH (MB)   RECORD NAMES
              1      20      549.93       500      700      610      701      900      950      970     1000      129      960   
                                          VAR     GEOM    BASINP    GEOM    SYMINP    ZMAT    AOBASIS   BASIS     P2S    ABASIS    
                                         1100     1400     1410     1200     1210     1080     1600     1650     1300     1700   
                                           S        T        V       H0       H01     AOSYM     SMH    MOLCAS    ERIS     OPER   

              2       8       18.16       500      610      700     1000      520     2100     2140      701   
                                          VAR    BASINP    GEOM     BASIS   MCVARS     RHF     MCSCF    GEOM   

 PROGRAMS   *        TOTAL       INT   RESTART
 CPU TIMES  *        37.55     37.44      0.01
 REAL TIME  *        38.94 SEC
 DISK USED  *         1.81 GB
 **********************************************************************************************************************************

 PROGRAM * MULTI (Direct Multiconfiguration SCF)       Authors: P.J. Knowles, H.-J. Werner (1984)
                                                                D.A. Kreplin, P.J. Knowles, H.-J. Werner (2019)

 Number of closed-shell orbitals:  10 (   6   2   2   0 )
 Number of active  orbitals:        8 (   4   2   2   0 )
 Number of external orbitals:     244 (  86  60  60  38 )

 State symmetry 1

 Number of active electrons:  10    Spin symmetry=Singlet   Space symmetry=1
 Number of states:             4
 Number of CSFs:             328   (792 determinants, 3136 intermediate states)

 State symmetry 2

 Number of active electrons:  10    Spin symmetry=Singlet   Space symmetry=4
 Number of states:             3
 Number of CSFs:             272   (776 determinants, 3136 intermediate states)

 Molecular orbitals read from record     2140.2  Type=MCSCF/NATURAL (state averaged)

 EXTRA SYMMETRY OF MOS IN SYMMETRY 1:   1 1 1 1 1 1 1 1 1 1   1 1 1 2 1 1 1 2 2 1   1 1 2 1 1 2 1 2 3 1   1 2 1 2 1 2 1 3 1 2
                                        1 2 1 1 2 1 2 3 1 2   3 1 2 1 1 1 3 2 2 1   3 1 2 2 1 1 1 2 1 2   3 3 1 2 1 1 2 1 2 1
                                        3 1 3 2 2 1 2 1 1 1   2 1 1 1 1 1
 EXTRA SYMMETRY OF MOS IN SYMMETRY 2:   1 1 1 1 1 1 1 1 2 1   1 1 1 2 1 1 2 1 2 1   1 1 2 1 2 1 1 2 1 3   1 2 1 2 1 2 3 1 1 2
                                        1 2 2 1 1 1 3 2 1 2   1 1 2 1 1 3 2 1 2 1   1 1 1 1
 EXTRA SYMMETRY OF MOS IN SYMMETRY 3:   1 1 1 1 1 1 1 1 2 1   1 1 1 2 1 1 2 1 2 1   1 1 2 1 2 1 1 2 1 3   1 2 1 2 1 2 3 1 1 2
                                        1 2 2 1 1 1 3 2 1 2   1 1 2 1 1 3 2 1 2 1   1 1 1 1
 EXTRA SYMMETRY OF MOS IN SYMMETRY 4:   1 1 1 1 1 1 2 1 1 1   2 1 1 1 1 2 1 2 1 2   1 1 2 1 1 1 1 2 2 1   1 1 2 2 1 1 1 1

 Wavefunction dump at record             2140.2

 Convergence thresholds  0.10E-04 (gradient)  0.10E-05 (energy)

 Weight factors for state symmetry  1:    0.14286   0.14286   0.14286   0.14286
 Weight factors for state symmetry  2:    0.14286   0.14286   0.14286
 
 Number of orbital rotations:  1372  ( 32 closed/active, 756 closed/virtual, 0 active/active, 584 active/virtual )
 Total number of variables:    6868
 
    4     1     1     1.11888547    -0.25878168  -686.31756392    -0.00057090    -0.00004624  0.11D-04  0.94D-05    20.62
    4     2     2     1.12208127    -0.26174441  -686.31719599    -0.00056412    -0.00004535  0.11D-04  0.94D-05    20.62
06 0.00080155 0.00004371  0.11E+00      2.21
   2   12   34    0   -686.06825350    -686.06829392   -0.00004042    0.01527360 0.00008748 0.00002600  0.14E-01      3.86
   3   11   37    0   -686.06829400    -686.06829400   -0.00000000    0.00004579 0.00000001 0.00000004  0.17E-03      5.41
   4    4    5    0   -686.06829400    -686.06829400    0.00000000    0.00000001 0.00000000 0.00000001  0.14E-07      6.73

 CONVERGENCE REACHED!  Final gradient:    0.00000000 ( 0.32E-08)
                       Final energy:   -686.06829400
 
 Results for state 1.1
 =====================
 !MCSCF STATE 1.1 Energy                      -686.318679409878
 Nuclear energy                                 79.02379683
 Kinetic energy                                689.14876496
 One electron energy                         -1109.63930402
 Two electron energy                           344.29682778
 Virial ratio                                    1.99589336
 
 !MCSCF STATE 1.1 Dipole moment                  0.00000000     0.00000000     0.00855371
 Dipole moment /Debye                            0.00000000     0.00000000     0.02174137
 
 Results for state 2.1
 =====================
 !MCSCF STATE 2.1 Energy                      -686.072743552173
 Nuclear energy                                 79.02379683
 Kinetic energy                                687.78575159
 One electron energy                         -1103.93079547
 Two electron energy                           338.83425509
 Virial ratio                                    1.99750939
 
 !MCSCF STATE 2.1 Dipole moment                  0.00000000     0.00000000    -1.63373977
 Dipole moment /Debye                            0.00000000     0.00000000    -4.15255229
 
 Results for state 3.1
 =====================
 !MCSCF STATE 3.1 Energy                      -686.058782236162
 Nuclear energy                                 79.02379683
 Kinetic energy                                688.75442635
 One electron energy                         -1106.62770246
 Two electron energy                           341.54512340
 Virial ratio                                    1.99608620
 
 !MCSCF STATE 3.1 Dipole moment                  0.00000000     0.00000000     1.10869874
 Dipole moment /Debye                            0.00000000     0.00000000     2.81803111
 
 Results for state 4.1
 =====================
 !MCSCF STATE 4.1 Energy                      -685.969758028812
 Nuclear energy                                 79.02379683
 Kinetic energy                                688.31918259
 One electron energy                         -1105.24596907
 Two electron energy                           340.25241421
 Virial ratio                                    1.99658672
 
 !MCSCF STATE 4.1 Dipole moment                  0.00000000     0.00000000     0.30056266
 Dipole moment /Debye                            0.00000000     0.00000000     0.76395408
 
 Results for state 1.4
 =====================
 !MCSCF STATE 1.4 Energy                      -686.058782236165
 Nuclear energy                                 79.02379683
 Kinetic energy                                688.75442635
 One electron energy                         -1106.62770246
 Two electron energy                           341.54512340
 Virial ratio                                    1.99608620
 
 !MCSCF STATE 1.4 Dipole moment                  0.00000000     0.00000000     1.10869874
 Dipole moment /Debye                            0.00000000     0.00000000     2.81803111
 
 Results for state 2.4
 =====================
 !MCSCF STATE 2.4 Energy                      -686.055451584573
 Nuclear energy                                 79.02379683
 Kinetic energy                                688.75699475
 One electron energy                         -1106.59662030
 Two electron energy                           341.51737189
 Virial ratio                                    1.99607765
 
 !MCSCF STATE 2.4 Dipole moment                  0.00000000     0.00000000     1.15586705
 Dipole moment /Debye                            0.00000000     0.00000000     2.93792101
 
 Results for state 3.4
 =====================
 !MCSCF STATE 3.4 Energy                      -685.943860940567
 Nuclear energy                                 79.02379683
 Kinetic energy                                687.95362036
 One electron energy                         -1106.03895721
 Two electron energy                           341.07129944
 Virial ratio                                    1.99707864
 
 !MCSCF STATE 3.4 Dipole moment                  0.00000000     0.00000000     0.20069145
 Dipole moment /Debye                            0.00000000     0.00000000     0.51010677
 
 State-averaged charge density matrix saved on record 2140.2 (density set 1)
 
 Expectation values: (only non-zero values are shown)
 
 !MCSCF expec                       <1.1|DMZ|1.1>     0.008553711825 au =     0.021741366864 Debye
 !MCSCF expec                       <2.1|DMZ|2.1>    -1.633739766814 au =    -4.152552290415 Debye
 !MCSCF expec                       <3.1|DMZ|3.1>     1.108698739161 au =     2.818031110098 Debye
 !MCSCF expec                       <4.1|DMZ|4.1>     0.300562660363 au =     0.763954081952 Debye
 !MCSCF expec                       <1.4|DMZ|1.4>     1.108698739424 au =     2.818031110765 Debye
 !MCSCF expec                       <2.4|DMZ|2.4>     1.155867053196 au =     2.937921005943 Debye
 !MCSCF expec                       <3.4|DMZ|3.4>     0.200691445649 au =     0.510106774179 Debye
 
 Transition values: (only non-zero values with the ground state are shown)
 
 !MCSCF trans                       <1.1|DMZ|2.1>     0.230523663545 au =     0.585932708803 Debye
 !MCSCF trans                       <1.1|DMZ|4.1>     1.559709547609 au =     3.964386241842 Debye
 

 EXTRA SYMMETRY OF MOS IN SYMMETRY 1:   1 1 1 1 1 1 1 1 1 1   1 1 1 2 1 1 1 2 2 1   1 1 2 1 1 2 1 2 3 1   1 2 1 2 1 2 1 3 1 2
                                        1 2 1 1 2 1 2 1 3 2   3 1 2 1 1 1 3 2 2 1   3 1 2 2 1 1 1 2 1 2   3 3 1 2 1 1 2 1 2 1
                                        3 1 3 2 2 1 2 1 1 1   2 1 1 1 1 1
 
 Natural orbital dump (state averaged) at molpro section 2140.2 (Orbital set 2)
 
 Reoptimze the CI vectors with natural orbitals 
 
 CI Coefficients of symmetry 1
 =============================
 
 2220 20 20      0.97061909     -0.00841768     -0.00000000     -0.09979652
 22ab 20 20      0.02207570      0.66418951     -0.00000000      0.07575229
 22ba 20 20     -0.02207570     -0.66418951      0.00000000     -0.07575229
 2220 20 ba     -0.06510890      0.04523145     -0.48521761     -0.40012831
 2220 ab 20      0.06510890     -0.04523145     -0.48521761      0.40012831
 2220 ba 20     -0.06510890      0.04523145      0.48521761     -0.40012831
 2220 20 ab      0.06510890     -0.04523145      0.48521761      0.40012831
 2a2b 20 20      0.00955219     -0.00594633      0.00000000     -0.35983147
 2b2a 20 20     -0.00955219      0.00594633     -0.00000000      0.35983147
 2202 20 20     -0.01519692      0.12936665      0.00000000     -0.00357056
 22ab ba 20      0.00316067     -0.09091969     -0.00903185      0.06627977
 22ab 20 ba      0.00316067     -0.09091969      0.00903185      0.06627977
 22ba ab 20      0.00316067     -0.09091969     -0.00903185      0.06627977
 22ba 20 ab      0.00316067     -0.09091969      0.00903185      0.06627977
 2200 22 20     -0.08327997     -0.00167852     -0.08801345      0.06664749
 2200 20 22     -0.08327997     -0.00167852      0.08801345      0.06664749
 2220 02 20     -0.05575231      0.00310463      0.07260737     -0.05009262
 2220 20 02     -0.05575231      0.00310463     -0.07260737     -0.05009262
 22ab ab 20     -0.00807767      0.06026379      0.00477155     -0.02237821
 22ab 20 ab     -0.00807767      0.06026379     -0.00477155     -0.02237821
 22ba ba 20     -0.00807767      0.06026379      0.00477155     -0.02237821
 22ba 20 ba     -0.00807767      0.06026379     -0.00477155     -0.02237821
 2a2b ba 20      0.01281318     -0.05880282     -0.00916911      0.00293896
 2a2b 20 ba      0.01281318     -0.05880282      0.00916911      0.00293896
 2b2a ab 20      0.01281318     -0.05880282     -0.00916911      0.00293896
 2b2a 20 ab      0.01281318     -0.05880282      0.00916911      0.00293896
 2200 22 ba      0.01162178     -0.00195583      0.05529861      0.03577974
 2200 22 ab     -0.01162178      0.00195583     -0.05529861     -0.03577974
 2200 ba 22      0.01162178     -0.00195583     -0.05529861      0.03577974
 2200 ab 22     -0.01162178      0.00195583      0.05529861     -0.03577974
 
 Energy:      -686.31867941   -686.07274355   -686.05878224   -685.96975803
 
 
 CI Coefficients of symmetry 4
 =============================
 
 2200 2b 2a      0.08801345     -0.00000000     -0.67420178
 2200 2a 2b     -0.08801345      0.00000000      0.67420178
 2220 b0 2a      0.48521761     -0.49120431      0.06314870
 2220 a0 2b     -0.48521761      0.49120431     -0.06314870
 2220 2b a0      0.48521761      0.49120431      0.06314870
 2220 2a b0     -0.48521761     -0.49120431     -0.06314870
 2020 2b 2a      0.00446187     -0.00000000      0.13606681
 2020 2a 2b     -0.00446187      0.00000000     -0.13606681
 2200 a2 2b      0.05529861     -0.05638139     -0.03249512
 2200 b2 2a     -0.05529861      0.05638139      0.03249512
 2200 2b a2     -0.05529861     -0.05638139      0.03249512
 2200 2a b2      0.05529861      0.05638139     -0.03249512
 2ba0 2b 2a      0.03895697     -0.00694174      0.05516981
 2ab0 2b 2a     -0.03895697     -0.00694174     -0.05516981
 2ab0 2a 2b      0.03895697     -0.00694174      0.05516981
 2ba0 2a 2b     -0.03895697     -0.00694174     -0.05516981
 
 Energy:      -686.05878224   -686.05545158   -685.94386094
 


 **********************************************************************************************************************************
 DATASETS  * FILE   NREC   LENGTH (MB)   RECORD NAMES
              1      21      585.24       500      700      610      701      900      950      970     1000      129      960   
                                          VAR     GEOM    BASINP    GEOM    SYMINP    ZMAT    AOBASIS   BASIS     P2S    ABASIS    
                                         1100     1400     1410     1200     1210     1080     1600     1650     1300     1700   
                                           S        T        V       H0       H01     AOSYM     SMH    MOLCAS    ERIS     OPER   
                                         1380   
                                         JKOP   

              2       9       18.16       500      610      700     1000      520     2100     2140      701     2140(1)
                                          VAR    BASINP    GEOM     BASIS   MCVARS     RHF     MCSCF    GEOM     MCSCF   

 PROGRAMS   *        TOTAL     MULTI       INT   RESTART
 CPU TIMES  *        44.84      7.29     37.44      0.01
 REAL TIME  *        47.03 SEC
 DISK USED  *         1.81 GB
 **********************************************************************************************************************************


 PROGRAM * CI (Multireference internally contracted CI)     Authors: H.-J. Werner, P.J. Knowles, 1987


 Convergence thresholds:  THRVAR = 1.00D-08  THRDEN = 1.00D-06

 Number of optimized states: 3  Roots:    1   2   3
 Number of reference states: 3  Roots:    1   2   3

 Program parameters:       NSTATE=  3    NSTATI=  4    NSTATR=  3    NCEPA = -1    NOKOP =  0    ITRDM =  0    ITRANS=  0
                           IDIP  =200    MAXIT =250    MAXITI=250    MAXDAV=  9    MAXVI = 12    NOSING=  0    NOPAIR=  0
                           MXSHRF=  6    IKCPS =  0    IOPTGM=  2    IOPTOR=  0    REFOPT=  1    IAVDEN=  0    IDELCG=  1
                           IREST =  0    NATORB=  0    IPUNRF=  0    ISEP  =  0    OLDDEN=  0    NSTPRI=  1    GPSFLI= -1
                           CLUSTE=  0    CLOSED=  1    ILSTYP=  0    ITRLS =  0    ICCSD =  0    LOCAL =  0    IBASO =  0
                           MP    =  0    ITEDIS=  2    INCDIS=  1    MAXDIS=  6    ITYDIS=  1    BRUECK=  0    IBRSTR=  3
                           INCBRK=  1    TRIPLE=  0    ICCTYP=  1    IHPPD =  0    ICCNEW=  0    I3EXT = -1    IDEB  =  0
                           IDLEIG=  1    IDFTYP=  1    IMP3  =  0    IPROCS=  0    NOINT =  0    NOREF =  1    IMP2G =  0
                           IHINT =  0    IFDIA =  0    ISPARO=  1    JKSYM =  0    CPHF  =  0    MP2D  = -1    DKINT =  0
                           NPKEX =  1    DRVK  =  1    HLSTRA=  1    WIGNER=  1    DIIS_C=  1    MAXIT_= 50    MATEL =  0
                           SPDEG =  1    MEMCPH=  0    DISM  =  1    KDCPMA=  5    IKDCP_=  0    IREDTH=  0    USECS =  0
                           IPROCC=  0    I3SAVE=  1    IKDCP =  1    USECI =  0    OLDPAI=  0    IPROCI=  0    KEEPCL=  1
                           DISCON=  0    SHIFTE=  0    DIISIN=  0    MOLCAS=  0    MEM_PT=  0    RECORD=  0    RS2C  =  0
                           KEXT  = -1    CIPT2 =  0    DECP0S=  0    I4EXT = -1    NATCOR=  0    RIMP2 =  0    DDCI  = -1
                           IPOLAR=  0

 Reference symmetry:                   1   Singlet 
 Number of electrons:                 30
 Maximum number of shells:             6
 Maximum number of spin couplings:    42

 Reference space:      240 conf      328 CSFs
 N elec internal:      784 conf     1176 CSFs
 N-1 el internal:     1016 conf     2352 CSFs
 N-2 el internal:     1107 conf     4116 CSFs

 Number of electrons in valence space:                     10
 Maximum number of open shell orbitals in reference space:  6
 Maximum number of open shell orbitals in internal spaces: 10


 Number of core orbitals:          10 (   6   2   2   0 )
 Number of active  orbitals:        8 (   4   2   2   0 )
 Number of external orbitals:     244 (  86  60  60  38 )

 Molecular orbitals read from record     2140.2  Type=MCSCF/NATURAL (state averaged)
    5     1     1     1.11951693    -0.25883865  -686.31762089    -0.00005697    -0.00000552  0.18D-05  0.91D-06    27.46
    5     2     2     1.12274942    -0.26180180  -686.31725339    -0.00005740    -0.00000536  0.18D-05  0.95D-06    27.46
686.31867941
     2      -686.07274355
     3      -686.05878224
     4      -685.96975803

 Number of blocks in overlap matrix:     8   Smallest eigenvalue:  0.22D-03
 Number of N-2 electron functions:     192
 Number of N-1 electron functions:    2352

 Number of internal configurations:                  328
 Number of singly external configurations:        144816
 Number of doubly external configurations:       1459440
 Total number of contracted configurations:      1604584
 Total number of uncontracted configurations:   30813616

 Diagonal Coupling coefficients finished.               Storage:  228761 words, CPU-Time:      0.08 seconds.
 Energy denominators for pairs finished in 1 passes.    Storage:  376976 words, CPU-time:      0.03 seconds.

  ITER. STATE  ROOT     SQ.NORM     CORR.ENERGY   TOTAL ENERGY   ENERGY CHANGE       DEN1      VAR(S)    VAR(P)      TIME
    1     1     1     1.00000000     0.00000000  -686.31867941     0.00000000    -0.27064887  0.58D-01  0.60D-01     0.59
    1     2     2     1.00000000     0.00000000  -686.07274355     0.00000000    -0.25518104  0.61D-01  0.57D-01     0.59
    1     3     3     1.00000000     0.00000000  -686.05878224    -0.00000000    -0.26127440  0.52D-01  0.65D-01     0.59
    2     1     1     1.10494939    -0.25500064  -686.57368005    -0.25500064    -0.01069398  0.30D-02  0.19D-02    16.13
    2     2     2     1.10914459    -0.24498032  -686.31772387    -0.24498032    -0.00879588  0.27D-02  0.17D-02    16.13
    7     1     1     1.11962778    -0.25884575  -686.31762799    -0.00000088    -0.00000014  0.59D-07  0.19D-07    41.07
    3     1     1     1.11030158    -0.26591680  -686.58459621    -0.01091616    -0.00067550  0.10D-03  0.15D-03    31.67
    3     2     2     1.11388568    -0.25413047  -686.32687402    -0.00915015    -0.00071057  0.20D-03  0.15D-03    31.67
    3     3     3     1.11580616    -0.25861887  -686.31740110    -0.00783166    -0.00053234  0.12D-03  0.12D-03    31.67
    4     1     1     1.11321964    -0.26670764  -686.58538705    -0.00079085    -0.00006326  0.97D-05  0.14D-04    47.14
    4     2     2     1.11778220    -0.25492838  -686.32767193    -0.00079791    -0.00007988  0.23D-04  0.17D-04    47.14
    4     3     3     1.12007890    -0.25927747  -686.31805971    -0.00065860    -0.00006061  0.16D-04  0.12D-04    47.14
     I      S      P

 I   0.1%
 S   0.1%   2.3%
 P   0.5%   7.8%  44.4%

 Initialization:   0.1%
 Other:           44.6%

 Total CPU:       54.7 seconds
 =====================================



 gnormi=  0.89312644  gnorms=  0.04262598  gnormp=  0.06424758  gnorm=  1.00000000
 ecorri= -0.23118215  ecorrs= -0.01103447  ecorrp= -0.01662932  ecorr= -0.25884594

 gnormi=  0.89054025  gnorms=  0.04638041  gnormp=  0.06307935  gnorm=  1.00000000
 ecorri= -0.23315180  ecorrs= -0.01214393  ecorrp= -0.01651366  ecorr= -0.26180939

 Wavefunction saved on  7310.2

 Reference coefficients greater than 0.0500000
 =============================================
 2220/02\           0.6506496   0.6584080
 22202/\0           0.6506496  -0.6584080
 22002/2\           0.1170055   0.0000001
 2/\02/2\          -0.0773686  -0.0000000
 22002/\2          -0.0689653   0.0685494
 2200/22\          -0.0689652  -0.0685493

 Coefficients of fixed reference functions:
 ==========================================

 State      Coefficients
 1           0.944736   -0.000000
 2           0.000000    0.943238

 Coefficients of rotated reference functions:
 ============================================

 State      Coefficients
 1           0.944736    0.000000
 2           0.000000    0.943238


 RESULTS FOR STATE 1.4
 =====================

 Coefficient of reference function:   C(0) = 0.94473633 (fixed)   0.94505367 (relaxed)   0.94473633 (rotated)

 Energy contributions of configuration classes

 CLASS          SQ.NORM        ECORR1        ECORR2
 +++++++++++++++++++++++++++++++++++++++++++++++++++
 Internals    0.00067193    0.00000000   -0.17270541
 Singles      0.04775877   -0.06551820   -0.06951121
 Pairs        0.07198392   -0.00000000   -0.01662932
 Total        1.12041463   -0.06551820   -0.25884594
 +++++++++++++++++++++++++++++++++++++++++++++++++++


 Reference energy                    -686.05878224
 Nuclear energy                        79.02379683
 Kinetic energy                       688.92360139
 One electron energy                -1106.75005417
 Two electron energy                  341.40862916
 Virial quotient                       -0.99621733
 Correlation energy                    -0.25884594
 !MRCI STATE 1.4 Energy              -686.317628176227

 Properties without orbital relaxation:

 !MRCI STATE 1.4 Dipole moment          0.00000000     0.00000000     1.00195679
 Dipole moment /Debye                   0.00000000     0.00000000     2.54672013

 Cluster corrected energies          -686.34879701 (Davidson, fixed reference)
 Cluster corrected energies          -686.34860227 (Davidson, relaxed reference)
 Cluster corrected energies          -686.34879701 (Davidson, rotated reference)

 Cluster corrected energies          -686.34443301 (Pople, fixed reference)
 Cluster corrected energies          -686.34425354 (Pople, relaxed reference)
 Cluster corrected energies          -686.34443301 (Pople, rotated reference)







 RESULTS FOR STATE 2.4
 =====================

 Coefficient of reference function:   C(0) = 0.94323795 (fixed)   0.94368440 (relaxed)   0.94323795 (rotated)

 Energy contributions of configuration classes

 CLASS          SQ.NORM        ECORR1        ECORR2
 +++++++++++++++++++++++++++++++++++++++++++++++++++
 Internals    0.00094685    0.00000000   -0.00022055
 Singles      0.05213052   -0.07049602   -0.07486408
 Pairs        0.07089974   -0.19131338   -0.18672476
 Total        1.12397711   -0.26180939   -0.26180939
 +++++++++++++++++++++++++++++++++++++++++++++++++++


 Reference energy                    -686.05545158
 Nuclear energy                        79.02379683
 Kinetic energy                       688.93830319
 One electron energy                -1106.75582308
 Two electron energy                  341.41476528
 Virial quotient                       -0.99619553
 Correlation energy                    -0.26180939
 !MRCI STATE 2.4 Energy              -686.317260975064

 Properties without orbital relaxation:

 !MRCI STATE 2.4 Dipole moment          0.00000000     0.00000000     1.03885604
 Dipole moment /Debye                   0.00000000     0.00000000     2.64050868

 Cluster corrected energies          -686.34971935 (Davidson, fixed reference)
 Cluster corrected energies          -686.34944098 (Davidson, relaxed reference)
 Cluster corrected energies          -686.34971935 (Davidson, rotated reference)

 Cluster corrected energies          -686.34523440 (Pople, fixed reference)
 Cluster corrected energies          -686.34497685 (Pople, relaxed reference)
 Cluster corrected energies          -686.34523440 (Pople, rotated reference)






 !MRCI trans          <2.4|DMZ|1.4>    -0.000000753845 au =    -0.000001916083 Debye


 **********************************************************************************************************************************
 DATASETS  * FILE   NREC   LENGTH (MB)   RECORD NAMES
              1      21      585.24       500      700      610      701      900      950      970     1000      129      960   
                                          VAR     GEOM    BASINP    GEOM    SYMINP    ZMAT    AOBASIS   BASIS     P2S    ABASIS    
                                         1100     1400     1410     1200     1210     1080     1600     1650     1300     1700   
                                           S        T        V       H0       H01     AOSYM     SMH    MOLCAS    ERIS     OPER   
                                         1380   
                                         JKOP   

              2      11       76.80       500      610      700     1000      520     2100     2140      701     2140(1)  8310   
                                          VAR    BASINP    GEOM     BASIS   MCVARS     RHF     MCSCF    GEOM     MCSCF    MRCI   
                                         7310   
                                         MRCI   

 PROGRAMS   *        TOTAL        CI        CI     MULTI       INT   RESTART
 CPU TIMES  *       229.06     54.86    130.82      7.15     36.11      0.01
 REAL TIME  *       237.81 SEC
 DISK USED  *         1.81 GB
 **********************************************************************************************************************************


 PROGRAM * CI (Multireference internally contracted CI)     Authors: H.-J. Werner, P.J. Knowles, 1987


 Ket wavefunction restored from record 8310.2 to file 8
 Bra wavefunction restored from record 7310.2 to file 7
 !MRCI trans           <1.4|LZ|3.1>    -1.999156819131i
 !MRCI trans           <2.4|LZ|1.1>     0.000036605614i
 !MRCI trans           <2.4|LZ|2.1>    -0.000013498285i
 !MRCI trans           <2.4|LZ|3.1>    -0.000000064421i


 **********************************************************************************************************************************
 DATASETS  * FILE   NREC   LENGTH (MB)   RECORD NAMES
              1      21      585.24       500      700      610      701      900      950      970     1000      129      960   
                                          VAR     GEOM    BASINP    GEOM    SYMINP    ZMAT    AOBASIS   BASIS     P2S    ABASIS    
                                         1100     1400     1410     1200     1210     1080     1600     1650     1300     1700   
                                           S        T        V       H0       H01     AOSYM     SMH    MOLCAS    ERIS     OPER   
                                         1380   
                                         JKOP   

              2      11       76.80       500      610      700     1000      520     2100     2140      701     2140(1)  8310   
                                          VAR    BASINP    GEOM     BASIS   MCVARS     RHF     MCSCF    GEOM     MCSCF    MRCI   
                                         7310   
                                         MRCI   

 PROGRAMS   *        TOTAL        CI        CI        CI     MULTI       INT   RESTART
 CPU TIMES  *       229.97      0.91     54.86    130.82      7.15     36.11      0.01
 REAL TIME  *       238.88 SEC
 DISK USED  *         1.81 GB
 **********************************************************************************************************************************

              CI              CI           MULTI
   -686.31726098   -686.31815049   -685.94386094
 **********************************************************************************************************************************
 Molpro calculation terminated
    5     1     1     1.11381836    -0.26678257  -686.58546198    -0.00007492    -0.00000779  0.12D-05  0.16D-05    63.03
    5     2     2     1.11875824    -0.25502452  -686.32776807    -0.00009614    -0.00001316  0.41D-05  0.26D-05    63.03
    5     3     3     1.12090376    -0.25935494  -686.31813718    -0.00007747    -0.00000912  0.32D-05  0.16D-05    63.03
    6     1     1     1.11383435    -0.26679158  -686.58547099    -0.00000901    -0.00000093  0.14D-06  0.20D-06    79.06
    6     2     2     1.11878709    -0.25504080  -686.32778435    -0.00001628    -0.00000264  0.90D-06  0.50D-06    79.06
    6     3     3     1.12100366    -0.25936569  -686.31814793    -0.00001075    -0.00000167  0.64D-06  0.26D-06    79.06
    7     1     1     1.11385491    -0.26679265  -686.58547206    -0.00000107    -0.00000015  0.26D-07  0.31D-07    94.95
    7     2     2     1.11885334    -0.25504396  -686.32778751    -0.00000316    -0.00000068  0.30D-06  0.12D-06    94.95
    7     3     3     1.12110550    -0.25936769  -686.31814992    -0.00000199    -0.00000037  0.16D-06  0.55D-07    94.95
    8     1     1     1.11386869    -0.26679281  -686.58547222    -0.00000017    -0.00000003  0.38D-08  0.53D-08   110.75
    8     2     2     1.11888360    -0.25504474  -686.32778829    -0.00000079    -0.00000018  0.73D-07  0.29D-07   110.75
    8     3     3     1.12115509    -0.25936813  -686.31815037    -0.00000044    -0.00000009  0.36D-07  0.13D-07   110.75
    9     1     1     1.11386927    -0.26679281  -686.58547222    -0.00000000    -0.00000003  0.38D-08  0.52D-08   122.89
    9     2     2     1.11888500    -0.25504495  -686.32778850    -0.00000021    -0.00000005  0.23D-07  0.75D-08   122.89
    9     3     3     1.12118615    -0.25936825  -686.31815049    -0.00000012    -0.00000001  0.36D-08  0.20D-08   122.89
   10     1     1     1.11386928    -0.26679281  -686.58547222    -0.00000000    -0.00000003  0.38D-08  0.52D-08   131.43
   10     2     2     1.11889390    -0.25504503  -686.32778858    -0.00000008    -0.00000001  0.21D-08  0.98D-09   131.43
   10     3     3     1.12118615    -0.25936825  -686.31815049    -0.00000000    -0.00000001  0.36D-08  0.20D-08   131.43


 =====================================
 Analysis of CPU times by interactions
 =====================================

       I      S      P

 I   0.1%
 S   0.1%   1.5%
 P   0.4%   6.4%  54.6%

 Initialization:   0.4%
 Other:           36.5%

 Total CPU:      131.4 seconds
 =====================================



 gnormi=  0.89777142  gnorms=  0.03673906  gnormp=  0.06548952  gnorm=  1.00000000
 ecorri= -0.23951896  ecorrs= -0.00980010  ecorrp= -0.01747375  ecorr= -0.26679281

 gnormi=  0.89373979  gnorms=  0.04599492  gnormp=  0.06026529  gnorm=  1.00000000
 ecorri= -0.22794389  ecorrs= -0.01173162  ecorrp= -0.01536951  ecorr= -0.25504503

 gnormi=  0.89191255  gnorms=  0.04357713  gnormp=  0.06451031  gnorm=  1.00000000
 ecorri= -0.23133380  ecorrs= -0.01130140  ecorrp= -0.01673306  ecorr= -0.25936825

 Wavefunction saved on  8310.2

 Reference coefficients greater than 0.0500000
 =============================================
 22202020           0.9256443  -0.0289091   0.0000002
 22/\2020           0.0474808   0.8948532  -0.0000001
 2220/\20           0.0684188  -0.0744569  -0.6501034
 222020/\           0.0684188  -0.0744569   0.6501014
 22022020          -0.0139191   0.1370482  -0.0000000
 22/\20/\          -0.0090597   0.1203139  -0.0030479
 22/\/\20          -0.0090597   0.1203139   0.0030477
 22002022          -0.0743218  -0.0044453   0.0835970
 22002220          -0.0743218  -0.0044452  -0.0835970
 2/2\/\20          -0.0228832   0.0795648   0.0147435
 2/2\20/\          -0.0228832   0.0795648  -0.0147433
 2200/\22          -0.0099627   0.0044186   0.0690552
 220022/\          -0.0099627   0.0044186  -0.0690551
 2220/\/\          -0.0624397   0.0029743   0.0000001
 22200220          -0.0486624   0.0078332   0.0583426
 22202002          -0.0486623   0.0078333  -0.0583425
 2/\02022           0.0444805   0.0013035  -0.0554241
 2/\02220           0.0444805   0.0013035   0.0554241

 Coefficients of fixed reference functions:
 ==========================================

 State      Coefficients
 1           0.946645    0.020927   -0.000000
 2          -0.022767    0.943689   -0.000000
 3          -0.000000   -0.000000    0.944052

 Coefficients of rotated reference functions:
 ============================================

 State      Coefficients
 1           0.946876   -0.000954   -0.000000
 2          -0.000954    0.943963   -0.000000
 3          -0.000000   -0.000000    0.944052


 RESULTS FOR STATE 1.1
 =====================

 Coefficient of reference function:   C(0) = 0.94664517 (fixed)   0.94750800 (relaxed)   0.94687596 (rotated)

 Energy contributions of configuration classes

 CLASS          SQ.NORM        ECORR1        ECORR2
 +++++++++++++++++++++++++++++++++++++++++++++++++++
 Internals    0.00133545   -0.00000572   -0.18314734
 Singles      0.04097716   -0.06287447   -0.06617172
 Pairs        0.07304418   -0.00000001   -0.01747376
 Total        1.11535679   -0.06288020   -0.26679281
 +++++++++++++++++++++++++++++++++++++++++++++++++++


 Reference energy                    -686.31854808
 Nuclear energy                        79.02379683
 Kinetic energy                       688.88170845
 One electron energy                -1108.68684502
 Two electron energy                  343.07757597
 Virial quotient                       -0.99666672
 Correlation energy                    -0.26692414
 !MRCI STATE 1.1 Energy              -686.585472224457

 Properties without orbital relaxation:

 !MRCI STATE 1.1 Dipole moment          0.00000000     0.00000000    -0.03055204
 Dipole moment /Debye                   0.00000000     0.00000000    -0.07765553

 Cluster corrected energies          -686.61626374 (Davidson, fixed reference)
 Cluster corrected energies          -686.61586668 (Davidson, relaxed reference)
 Cluster corrected energies          -686.61626374 (Davidson, rotated reference)

 Cluster corrected energies          -686.61187246 (Pople, fixed reference)
 Cluster corrected energies          -686.61150881 (Pople, relaxed reference)
 Cluster corrected energies          -686.61187246 (Pople, rotated reference)







 RESULTS FOR STATE 2.1
 =====================

 Coefficient of reference function:   C(0) = 0.94368890 (fixed)   0.94537812 (relaxed)   0.94396302 (rotated)

 Energy contributions of configuration classes

 CLASS          SQ.NORM        ECORR1        ECORR2
 +++++++++++++++++++++++++++++++++++++++++++++++++++
 Internals    0.00300046   -0.00000575   -0.16461255
 Singles      0.05161785   -0.07107367   -0.07506297
 Pairs        0.06763279    0.00000000   -0.01536951
 Total        1.12225110   -0.07107942   -0.25504503
 +++++++++++++++++++++++++++++++++++++++++++++++++++


 Reference energy                    -686.07287488
 Nuclear energy                        79.02379683
 Kinetic energy                       688.24032300
 One electron energy                -1104.44553931
 Two electron energy                  339.09395390
 Virial quotient                       -0.99722112
 Correlation energy                    -0.25491370
 !MRCI STATE 2.1 Energy              -686.327788579448

 Properties without orbital relaxation:

 !MRCI STATE 2.1 Dipole moment          0.00000000     0.00000000    -1.62164473
 Dipole moment /Debye                   0.00000000     0.00000000    -4.12180977

 Cluster corrected energies          -686.35895206 (Davidson, fixed reference)
 Cluster corrected energies          -686.35809626 (Davidson, relaxed reference)
 Cluster corrected energies          -686.35895206 (Davidson, rotated reference)

 Cluster corrected energies          -686.35461830 (Pople, fixed reference)
 Cluster corrected energies          -686.35382911 (Pople, relaxed reference)
 Cluster corrected energies          -686.35461830 (Pople, rotated reference)







 RESULTS FOR STATE 3.1
 =====================

 Coefficient of reference function:   C(0) = 0.94405206 (fixed)   0.94441122 (relaxed)   0.94405206 (rotated)

 Energy contributions of configuration classes

 CLASS          SQ.NORM        ECORR1        ECORR2
 +++++++++++++++++++++++++++++++++++++++++++++++++++
 Internals    0.00076103    0.00000000   -0.00017592
 Singles      0.04889526   -0.06596669   -0.07009317
 Pairs        0.07238311   -0.19340157   -0.18909917
 Total        1.12203940   -0.25936825   -0.25936825
 +++++++++++++++++++++++++++++++++++++++++++++++++++


 Reference energy                    -686.05878224
 Nuclear energy                        79.02379683
 Kinetic energy                       688.92369039
 One electron energy                -1106.75102241
 Two electron energy                  341.40907509
 Virial quotient                       -0.99621796
 Correlation energy                    -0.25936825
 !MRCI STATE 3.1 Energy              -686.318150490762

 Properties without orbital relaxation:

 !MRCI STATE 3.1 Dipole moment          0.00000000     0.00000000     0.99643536
 Dipole moment /Debye                   0.00000000     0.00000000     2.53268606

 Cluster corrected energies          -686.34980364 (Davidson, fixed reference)
 Cluster corrected energies          -686.34958233 (Davidson, relaxed reference)
 Cluster corrected energies          -686.34980364 (Davidson, rotated reference)

 Cluster corrected energies          -686.34539833 (Pople, fixed reference)
 Cluster corrected energies          -686.34519400 (Pople, relaxed reference)
 Cluster corrected energies          -686.34539833 (Pople, rotated reference)






 !MRCI trans          <2.1|DMZ|1.1>     0.251656161609 au =     0.639646161227 Debye

 !MRCI trans          <3.1|DMZ|1.1>    -0.000003347258 au =    -0.000008507882 Debye

 !MRCI trans          <3.1|DMZ|2.1>     0.000001234510 au =     0.000003137812 Debye


 **********************************************************************************************************************************
 DATASETS  * FILE   NREC   LENGTH (MB)   RECORD NAMES
              1      21      585.24       500      700      610      701      900      950      970     1000      129      960   
                                          VAR     GEOM    BASINP    GEOM    SYMINP    ZMAT    AOBASIS   BASIS     P2S    ABASIS    
                                         1100     1400     1410     1200     1210     1080     1600     1650     1300     1700   
                                           S        T        V       H0       H01     AOSYM     SMH    MOLCAS    ERIS     OPER   
                                         1380   
                                         JKOP   

              2      10       56.04       500      610      700     1000      520     2100     2140      701     2140(1)  8310   
                                          VAR    BASINP    GEOM     BASIS   MCVARS     RHF     MCSCF    GEOM     MCSCF    MRCI   

 PROGRAMS   *        TOTAL        CI     MULTI       INT   RESTART
 CPU TIMES  *       176.87    132.03      7.29     37.44      0.01
 REAL TIME  *       183.64 SEC
 DISK USED  *         1.81 GB
 **********************************************************************************************************************************


 PROGRAM * CI (Multireference internally contracted CI)     Authors: H.-J. Werner, P.J. Knowles, 1987


 Convergence thresholds:  THRVAR = 1.00D-08  THRDEN = 1.00D-06

 Number of optimized states: 2  Roots:    1   2
 Number of reference states: 2  Roots:    1   2

 Program parameters:       NSTATE=  2    NSTATI=  3    NSTATR=  2    NCEPA = -1    NOKOP =  0    ITRDM =  0    ITRANS=  0
                           IDIP  =200    MAXIT =250    MAXITI=250    MAXDAV=  6    MAXVI =  9    NOSING=  0    NOPAIR=  0
                           MXSHRF=  6    IKCPS =  0    IOPTGM=  2    IOPTOR=  0    REFOPT=  1    IAVDEN=  0    IDELCG=  1
                           IREST =  0    NATORB=  0    IPUNRF=  0    ISEP  =  0    OLDDEN=  0    NSTPRI=  1    GPSFLI= -1
                           CLUSTE=  0    CLOSED=  1    ILSTYP=  0    ITRLS =  0    ICCSD =  0    LOCAL =  0    IBASO =  0
                           MP    =  0    ITEDIS=  2    INCDIS=  1    MAXDIS=  6    ITYDIS=  1    BRUECK=  0    IBRSTR=  3
                           INCBRK=  1    TRIPLE=  0    ICCTYP=  1    IHPPD =  0    ICCNEW=  0    I3EXT = -1    IDEB  =  0
                           IDLEIG=  1    IDFTYP=  1    IMP3  =  0    IPROCS=  0    NOINT =  0    NOREF =  1    IMP2G =  0
                           IHINT =  0    IFDIA =  0    ISPARO=  1    JKSYM =  0    CPHF  =  0    MP2D  = -1    DKINT =  0
                           NPKEX =  1    DRVK  =  1    HLSTRA=  1    WIGNER=  1    DIIS_C=  1    MAXIT_= 50    MATEL =  0
                           SPDEG =  1    MEMCPH=  0    DISM  =  1    KDCPMA=  5    IKDCP_=  0    IREDTH=  0    USECS =  0
                           IPROCC=  0    I3SAVE=  1    IKDCP =  1    USECI =  0    OLDPAI=  0    IPROCI=  0    KEEPCL=  1
                           DISCON=  0    SHIFTE=  0    DIISIN=  0    MOLCAS=  0    MEM_PT=  0    RECORD=  0    RS2C  =  0
                           KEXT  = -1    CIPT2 =  0    DECP0S=  0    I4EXT = -1    NATCOR=  0    RIMP2 =  0    DDCI  = -1
                           IPOLAR=  0

 Reference symmetry:                   4   Singlet 
 Number of electrons:                 30
 Maximum number of shells:             6
 Maximum number of spin couplings:    42

 Reference space:      160 conf      272 CSFs
 N elec internal:      784 conf     1176 CSFs
 N-1 el internal:     1012 conf     2348 CSFs
 N-2 el internal:      928 conf     3697 CSFs

 Number of electrons in valence space:                     10
 Maximum number of open shell orbitals in reference space:  6
 Maximum number of open shell orbitals in internal spaces: 10


 Number of core orbitals:          10 (   6   2   2   0 )
 Number of active  orbitals:        8 (   4   2   2   0 )
 Number of external orbitals:     244 (  86  60  60  38 )

 Molecular orbitals read from record     2140.2  Type=MCSCF/NATURAL (state averaged)

 Coulomb and exchange operators available. No transformation done.


 Number of p-space configurations:  15

 Reference wavefunction optimized for reference space (refopt=1)

 State     Reference Energy 
     1      -686.05878224
     2      -686.05545158
     3      -685.94386094

 Number of blocks in overlap matrix:     8   Smallest eigenvalue:  0.12D-02
 Number of N-2 electron functions:     128
 Number of N-1 electron functions:    2348

 Number of internal configurations:                  272
 Number of singly external configurations:        141976
 Number of doubly external configurations:        972960
 Total number of contracted configurations:      1115208
 Total number of uncontracted configurations:   27707036

 Diagonal Coupling coefficients finished.               Storage:  185115 words, CPU-Time:      0.03 seconds.
 Energy denominators for pairs finished in 1 passes.    Storage:  362457 words, CPU-time:      0.02 seconds.

  ITER. STATE  ROOT     SQ.NORM     CORR.ENERGY   TOTAL ENERGY   ENERGY CHANGE       DEN1      VAR(S)    VAR(P)      TIME
    1     1     1     1.00000000     0.00000000  -686.05878224     0.00000000    -0.26164676  0.53D-01  0.65D-01     0.13
    1     2     2     1.00000000     0.00000000  -686.05545158    -0.00000000    -0.26441703  0.56D-01  0.64D-01     0.13
    2     1     1     1.10843100    -0.25064718  -686.30942941    -0.25064718    -0.00661517  0.15D-02  0.14D-02     6.92
    2     2     2     1.11087669    -0.25370991  -686.30916149    -0.25370991    -0.00648164  0.14D-02  0.14D-02     6.92
    3     1     1     1.11528699    -0.25821078  -686.31699302    -0.00756361    -0.00046692  0.10D-03  0.11D-03    13.77
    3     2     2     1.11838165    -0.26118029  -686.31663188    -0.00747038    -0.00045950  0.10D-03  0.10D-03    13.77
    4     1     1     1.11888547    -0.25878168  -686.31756392    -0.00057090    -0.00004624  0.11D-04  0.94D-05    20.55
    4     2     2     1.12208127    -0.26174441  -686.31719599    -0.00056412    -0.00004535  0.11D-04  0.94D-05    20.55
    5     1     1     1.11951693    -0.25883865  -686.31762089    -0.00005697    -0.00000552  0.18D-05  0.91D-06    27.28
    5     2     2     1.12274942    -0.26180180  -686.31725339    -0.00005740    -0.00000536  0.18D-05  0.95D-06    27.28
    6     1     1     1.11957057    -0.25884487  -686.31762710    -0.00000622    -0.00000078  0.29D-06  0.12D-06    33.94
    6     2     2     1.12281957    -0.26180829  -686.31725988    -0.00000649    -0.00000074  0.26D-06  0.12D-06    33.94
    7     1     1     1.11962778    -0.25884575  -686.31762799    -0.00000088    -0.00000014  0.59D-07  0.19D-07    40.74
    7     2     2     1.12288615    -0.26180921  -686.31726080    -0.00000092    -0.00000013  0.47D-07  0.19D-07    40.74
    8     1     1     1.11965599    -0.25884591  -686.31762815    -0.00000016    -0.00000002  0.10D-07  0.34D-08    47.52
    8     2     2     1.12290841    -0.26180936  -686.31726095    -0.00000015    -0.00000002  0.95D-08  0.33D-08    47.52
    9     1     1     1.11966229    -0.25884594  -686.31762818    -0.00000003    -0.00000000  0.22D-08  0.62D-09    54.35
    9     2     2     1.12291388    -0.26180939  -686.31726098    -0.00000003    -0.00000000  0.17D-08  0.62D-09    54.35


 =====================================
 Analysis of CPU times by interactions
 =====================================

       I      S      P

 I   0.1%
 S   0.1%   2.4%
 P   0.5%   7.9%  44.8%

 Initialization:   0.1%
 Other:           44.0%

 Total CPU:       54.3 seconds
 =====================================



 gnormi=  0.89312644  gnorms=  0.04262598  gnormp=  0.06424758  gnorm=  1.00000000
 ecorri= -0.23118215  ecorrs= -0.01103447  ecorrp= -0.01662932  ecorr= -0.25884594

 gnormi=  0.89054025  gnorms=  0.04638041  gnormp=  0.06307935  gnorm=  1.00000000
 ecorri= -0.23315180  ecorrs= -0.01214393  ecorrp= -0.01651366  ecorr= -0.26180939

 Wavefunction saved on  7310.2

 Reference coefficients greater than 0.0500000
 =============================================
 2220/02\           0.6506496   0.6584080
 22202/\0           0.6506496  -0.6584080
 22002/2\           0.1170055   0.0000001
 2/\02/2\          -0.0773686  -0.0000000
 22002/\2          -0.0689653   0.0685494
 2200/22\          -0.0689652  -0.0685493

 Coefficients of fixed reference functions:
 ==========================================

 State      Coefficients
 1           0.944736   -0.000000
 2           0.000000    0.943238

 Coefficients of rotated reference functions:
 ============================================

 State      Coefficients
 1           0.944736    0.000000
 2           0.000000    0.943238


 RESULTS FOR STATE 1.4
 =====================

 Coefficient of reference function:   C(0) = 0.94473633 (fixed)   0.94505367 (relaxed)   0.94473633 (rotated)

 Energy contributions of configuration classes

 CLASS          SQ.NORM        ECORR1        ECORR2
 +++++++++++++++++++++++++++++++++++++++++++++++++++
 Internals    0.00067193    0.00000000   -0.17270541
 Singles      0.04775877   -0.06551820   -0.06951121
 Pairs        0.07198392   -0.00000000   -0.01662932
 Total        1.12041463   -0.06551820   -0.25884594
 +++++++++++++++++++++++++++++++++++++++++++++++++++


 Reference energy                    -686.05878224
 Nuclear energy                        79.02379683
 Kinetic energy                       688.92360139
 One electron energy                -1106.75005417
 Two electron energy                  341.40862916
 Virial quotient                       -0.99621733
 Correlation energy                    -0.25884594
 !MRCI STATE 1.4 Energy              -686.317628176227

 Properties without orbital relaxation:

 !MRCI STATE 1.4 Dipole moment          0.00000000     0.00000000     1.00195679
 Dipole moment /Debye                   0.00000000     0.00000000     2.54672013

 Cluster corrected energies          -686.34879701 (Davidson, fixed reference)
 Cluster corrected energies          -686.34860227 (Davidson, relaxed reference)
 Cluster corrected energies          -686.34879701 (Davidson, rotated reference)

 Cluster corrected energies          -686.34443301 (Pople, fixed reference)
 Cluster corrected energies          -686.34425354 (Pople, relaxed reference)
 Cluster corrected energies          -686.34443301 (Pople, rotated reference)







 RESULTS FOR STATE 2.4
 =====================

 Coefficient of reference function:   C(0) = 0.94323795 (fixed)   0.94368440 (relaxed)   0.94323795 (rotated)

 Energy contributions of configuration classes

 CLASS          SQ.NORM        ECORR1        ECORR2
 +++++++++++++++++++++++++++++++++++++++++++++++++++
 Internals    0.00094685    0.00000000   -0.00022055
 Singles      0.05213052   -0.07049602   -0.07486408
 Pairs        0.07089974   -0.19131338   -0.18672476
 Total        1.12397711   -0.26180939   -0.26180939
 +++++++++++++++++++++++++++++++++++++++++++++++++++


 Reference energy                    -686.05545158
 Nuclear energy                        79.02379683
 Kinetic energy                       688.93830319
 One electron energy                -1106.75582308
 Two electron energy                  341.41476528
 Virial quotient                       -0.99619553
 Correlation energy                    -0.26180939
 !MRCI STATE 2.4 Energy              -686.317260975064

 Properties without orbital relaxation:

 !MRCI STATE 2.4 Dipole moment          0.00000000     0.00000000     1.03885604
 Dipole moment /Debye                   0.00000000     0.00000000     2.64050868

 Cluster corrected energies          -686.34971935 (Davidson, fixed reference)
 Cluster corrected energies          -686.34944098 (Davidson, relaxed reference)
 Cluster corrected energies          -686.34971935 (Davidson, rotated reference)

 Cluster corrected energies          -686.34523440 (Pople, fixed reference)
 Cluster corrected energies          -686.34497685 (Pople, relaxed reference)
 Cluster corrected energies          -686.34523440 (Pople, rotated reference)






 !MRCI trans          <2.4|DMZ|1.4>    -0.000000753845 au =    -0.000001916083 Debye


 **********************************************************************************************************************************
 DATASETS  * FILE   NREC   LENGTH (MB)   RECORD NAMES
              1      21      585.24       500      700      610      701      900      950      970     1000      129      960   
                                          VAR     GEOM    BASINP    GEOM    SYMINP    ZMAT    AOBASIS   BASIS     P2S    ABASIS    
                                         1100     1400     1410     1200     1210     1080     1600     1650     1300     1700   
                                           S        T        V       H0       H01     AOSYM     SMH    MOLCAS    ERIS     OPER   
                                         1380   
                                         JKOP   

              2      11       76.80       500      610      700     1000      520     2100     2140      701     2140(1)  8310   
                                          VAR    BASINP    GEOM     BASIS   MCVARS     RHF     MCSCF    GEOM     MCSCF    MRCI   
                                         7310   
                                         MRCI   

 PROGRAMS   *        TOTAL        CI        CI     MULTI       INT   RESTART
 CPU TIMES  *       231.43     54.55    132.03      7.29     37.44      0.01
 REAL TIME  *       240.36 SEC
 DISK USED  *         1.81 GB
 **********************************************************************************************************************************


 PROGRAM * CI (Multireference internally contracted CI)     Authors: H.-J. Werner, P.J. Knowles, 1987


 Ket wavefunction restored from record 8310.2 to file 8
 Bra wavefunction restored from record 7310.2 to file 7
 !MRCI trans           <1.4|LZ|3.1>    -1.999156819131i
 !MRCI trans           <2.4|LZ|1.1>     0.000036605614i
 !MRCI trans           <2.4|LZ|2.1>    -0.000013498285i
 !MRCI trans           <2.4|LZ|3.1>    -0.000000064421i


 **********************************************************************************************************************************
 DATASETS  * FILE   NREC   LENGTH (MB)   RECORD NAMES
              1      21      585.24       500      700      610      701      900      950      970     1000      129      960   
                                          VAR     GEOM    BASINP    GEOM    SYMINP    ZMAT    AOBASIS   BASIS     P2S    ABASIS    
                                         1100     1400     1410     1200     1210     1080     1600     1650     1300     1700   
                                           S        T        V       H0       H01     AOSYM     SMH    MOLCAS    ERIS     OPER   
                                         1380   
                                         JKOP   

              2      11       76.80       500      610      700     1000      520     2100     2140      701     2140(1)  8310   
                                          VAR    BASINP    GEOM     BASIS   MCVARS     RHF     MCSCF    GEOM     MCSCF    MRCI   
                                         7310   
                                         MRCI   

 PROGRAMS   *        TOTAL        CI        CI        CI     MULTI       INT   RESTART
 CPU TIMES  *       232.35      0.92     54.55    132.03      7.29     37.44      0.01
 REAL TIME  *       241.43 SEC
 DISK USED  *         1.81 GB
 **********************************************************************************************************************************

              CI              CI           MULTI
   -686.31726098   -686.31815049   -685.94386094
 **********************************************************************************************************************************
 Molpro calculation terminated
